LAMMPS data file via write_data, version 2 Aug 2023, timestep = 20, units = real

5063 atoms
5 atom types

-46.65975 46.65975 xlo xhi
-46.65975 46.65975 ylo yhi
-46.65975 46.65975 zlo zhi

Masses

1 1.00794
2 12.0107
3 14.0067
4 15.9994
5 32.065

Atoms # full

4519 301 1 0.07616990710393011 8.68773760743451 -17.24669668578921 -28.406816237429993 0 0 0
4518 301 1 0.09208264561037978 10.459572906249615 -17.308592388899392 -28.053561253413104 0 0 0
4520 301 1 0.08182713419509129 9.585911917006454 -15.726400801896784 -28.020004374743287 0 0 0
4530 302 1 0.08721790620815836 12.018626473949416 -21.190179427291078 -28.290991201796665 0 0 0
4531 302 1 0.07832634493883678 12.851396544028116 -19.574700460511295 -28.099234704807596 0 0 0
4506 300 1 0.09586554912812811 8.598321159650109 -22.080571716739943 -22.81934710912857 0 0 0
4533 302 4 -0.4873529112856559 12.650363370327282 -21.941413494331414 -25.716739364777496 0 0 0
4537 303 1 0.1581147170997255 14.649524294636194 -21.985037740015443 -24.880490159359592 0 0 0
4542 303 4 -0.4453495653582283 16.22091238715093 -22.260332932295583 -26.919238675716265 0 0 0
4493 299 4 -0.5695590192945691 4.03515086810386 -19.324967477309112 -22.703237137646628 0 0 0
4494 299 1 0.3032894998506009 3.1398301469488756 -19.6825221539884 -22.72255455174771 0 0 0
4496 299 1 0.09254655821445776 5.7529998038356736 -17.40150278743528 -21.938600068147217 0 0 0
4497 299 1 0.09885270973261034 4.086768583872208 -16.75707123725428 -22.046967301932458 0 0 0
4501 300 3 -0.5952980359937918 6.882916451845358 -20.066746781278116 -22.148682972079246 0 0 0
4502 300 1 0.3089091373004978 6.183117589612037 -20.33438640361991 -22.836089435587944 0 0 0
4503 300 2 0.1123338528493399 8.276566676332589 -19.87309787860798 -22.53888320440121 0 0 0
4504 300 1 0.1181067682886432 8.667621824676148 -19.04206537439248 -21.908900080740334 0 0 0
4505 300 2 -0.1875127479473929 8.99707493263962 -21.240577933526964 -22.206421705243127 0 0 0
4509 300 2 0.5467445342741 8.184548449607856 -19.57431715557673 -24.118112705722066 0 0 0
4510 300 4 -0.4868818397600968 7.265660723485085 -20.00112128438946 -24.77404272296967 0 0 0
4511 301 3 -0.5800633523403977 9.189661277912622 -18.776591680987003 -24.558557696191283 0 0 0
4514 301 1 0.1123778220609463 8.5792547459305 -19.14512873356783 -26.49271690427951 0 0 0
4515 301 2 -0.0769108055692137 9.205369445197885 -17.03314840117258 -26.288590258626897 0 0 0
4521 301 2 -0.1958817741006759 7.831653142326053 -16.50255275561353 -25.91922965734392 0 0 0
4523 301 1 0.1029691706502918 7.027603887101315 -17.147722262348818 -26.352626390297647 0 0 0
4524 301 1 0.08958021170216673 7.6785279802211805 -16.499282261724908 -24.81169347025881 0 0 0
4591 306 2 -0.1888243024087382 8.873560968378086 -16.256854309507606 -21.78652765557151 0 0 0
4592 306 1 0.07234719942172092 8.969864430327194 -15.786308564964283 -22.792030541151842 0 0 0
4507 300 1 0.1067646234026394 10.086671796669094 -21.169487874435724 -22.403472451959328 0 0 0
4512 301 1 0.2780500849929891 9.93837474668436 -18.630950904660317 -23.859518246258578 0 0 0
4513 301 2 0.1070197638927661 9.353076943391686 -18.515271965189342 -25.991256582973953 0 0 0
4516 301 1 0.1119703379892595 9.957634774459166 -16.46719140052731 -25.6884390940056 0 0 0
4517 301 2 -0.2242729335850495 9.495656301593822 -16.81221577550741 -27.75999713087837 0 0 0
4525 301 2 0.5559766413890412 10.891754921011206 -18.88670846980186 -26.306154468465923 0 0 0
4526 301 4 -0.534750222705022 11.79563726657313 -18.252617348887764 -25.81989585669428 0 0 0
4527 302 3 -0.5929857911565525 10.997927941457709 -19.850872280229503 -27.23174610123933 0 0 0
4528 302 1 0.224254875676658 10.145176895581951 -20.312866738424518 -27.509982601926826 0 0 0
4529 302 2 0.04853048971326958 12.30837652703079 -20.391767929000586 -27.568152717062613 0 0 0
4532 302 2 0.5939965138869592 13.054763014929714 -20.94417734981985 -26.2596689141824 0 0 0
4534 303 3 -0.595830083645391 14.153009337806338 -20.265339968897294 -25.894299365110392 0 0 0
4535 303 1 0.2398133296250458 14.416914685095056 -19.41228791979187 -26.380430649933086 0 0 0
4536 303 2 0.1239701195460779 14.930428217659598 -20.896645107318328 -24.832975633673026 0 0 0
4544 303 2 0.5479764509866886 14.604070703969054 -20.208754337814625 -23.40682989885358 0 0 0
4545 303 4 -0.5336165856436509 15.233879018057554 -20.62233379513597 -22.476318200125235 0 0 0
4546 304 3 -0.5735319900333532 13.730904816384301 -19.189999626895517 -23.34823932158672 0 0 0
4547 304 1 0.3041808875659038 13.17232194251026 -18.96333509539579 -24.165866396859673 0 0 0
4548 304 2 0.09974845330194183 13.612727981393459 -18.499979555390315 -22.088549821791766 0 0 0
4550 304 2 -0.1331977563198606 13.52032726809612 -16.981553668150838 -22.50650616715139 0 0 0
4551 304 1 0.1138570112473622 12.645505396938315 -16.810553224664485 -23.173505647153796 0 0 0
4552 304 1 0.08788286259403989 14.40188585714358 -16.720553367740916 -23.125952207739104 0 0 0
4564 304 4 -0.5552829317898733 11.139179745512262 -18.80182857441934 -21.989846166215145 0 0 0
4538 303 2 -0.166086346471479 16.442814499653327 -20.636569937573487 -25.06709309958105 0 0 0
4539 303 1 0.09967079476459666 17.051162874986026 -21.09284463567735 -24.256798082546464 0 0 0
4540 303 1 0.08522938195209484 16.692672019468322 -19.555573345569517 -25.034074660746462 0 0 0
4541 303 2 0.6611848707488995 16.845404975759024 -21.266409929903553 -26.513594123653256 0 0 0
4543 303 4 -0.4489659177374893 17.84220772202309 -20.814135442225407 -27.093083421547348 0 0 0
4522 301 1 0.07138478696873643 7.668521021009808 -15.456599114635376 -26.298268560972286 0 0 0
4597 306 1 0.07074293090118984 8.98596616685071 -13.351643927864016 -21.90258974877398 0 0 0
4560 304 1 0.0758793985144897 11.985276656651319 -14.592817689447273 -22.028116346968293 0 0 0
4562 304 1 0.08264304430384814 13.677696572909676 -14.236076873007915 -22.498795775506593 0 0 0
3434 227 1 0.2036400913212892 10.042638392870058 -1.1548101817485708 -22.01513967646063 0 0 0
2984 197 1 0.08666553698331428 -3.3952555469222414 14.787276663251943 -22.947608932690432 0 0 0
2997 198 1 0.08295462460003772 -5.524132747440362 10.53599975526953 -21.905003627735933 0 0 0
2998 198 1 0.1396845934234941 -5.096471429161175 12.244647536278778 -21.943820367962935 0 0 0
2999 198 2 0.04706638689953671 -7.258666504095456 11.855313440102496 -22.288057387153962 0 0 0
3000 198 1 0.1018607015124864 -7.599639419828201 12.905790599793333 -22.180195046651416 0 0 0
3001 198 1 0.1122281953392267 -8.081604258583347 11.15350831641364 -22.02342087009186 0 0 0
3002 198 3 -0.5500564338861944 -6.987241759994826 11.61920359180762 -23.723847045614548 0 0 0
3003 198 1 0.2373999388428613 -7.056229940801883 10.706029881943595 -24.1577638573869 0 0 0
3004 198 2 0.6850740230768966 -6.514241945343225 12.666774654335548 -24.527737350656942 0 0 0
3005 198 3 -0.6923049497805962 -6.028383507279365 12.30058372001107 -25.756665558640627 0 0 0
3006 198 1 0.2463944174186413 -5.904741326227151 11.3407524137481 -26.109249901498274 0 0 0
3007 198 1 0.2376566206742753 -5.828776476578485 13.12997215455708 -26.314747858634156 0 0 0
3008 198 3 -0.6846457794268591 -6.560817480910957 13.963801702937623 -24.090206236184326 0 0 0
3009 198 1 0.2869593441376128 -7.0188154623347065 14.283638506153386 -23.220855347727387 0 0 0
3010 198 1 0.2249023641153423 -6.1693288051394015 14.661840395375263 -24.72584866997358 0 0 0
2982 197 2 0.09398350394935888 -2.687939697176503 14.697681583642074 -22.075374550897262 0 0 0
2983 197 1 0.08943456910715181 -1.7489067143510704 15.271888470025592 -22.334834867201767 0 0 0
2985 197 4 -0.5518135446801489 -2.3419663646866984 13.299625960677615 -21.93754615771549 0 0 0
2930 194 1 0.09483291359568781 5.228687858699035 15.041443886707436 -21.861509871305 0 0 0
2936 194 1 0.08139355978898766 7.4682061567173985 15.425418016900094 -22.71565947422336 0 0 0
2841 188 2 0.06565090893921358 -7.04142588410235 17.94266855720081 -22.33758035889829 0 0 0
2842 188 1 0.06626100232950531 -7.044180582217935 17.147472911592406 -23.12447271406365 0 0 0
2843 188 1 0.09846216663372361 -7.475484852384156 18.8780745013525 -22.762935786522778 0 0 0
2844 188 2 0.5394464624715209 -5.5826076312068045 18.219735180070575 -21.734181490911805 0 0 0
2846 189 3 -0.4524029220300692 -4.568216078637198 18.373310083323073 -22.58931466982843 0 0 0
2847 189 2 -0.006656514670193896 -4.515933835967555 17.802795934734153 -23.931634121672925 0 0 0
2848 189 1 0.0610307776491753 -5.0448095863133915 16.82199712817478 -23.93604439562416 0 0 0
2849 189 1 0.0739868842551749 -5.072501069289265 18.52099124941939 -24.579881482670093 0 0 0
2850 189 2 0.09730555007612286 -3.3363961154346833 19.004811684841094 -22.166225095467322 0 0 0
2859 189 4 -0.5062077134096591 -4.425229288104211 21.189420417823943 -21.87948744424219 0 0 0
2852 189 2 -0.1276610837844716 -2.4703948560951394 19.015839840872687 -23.490290428002435 0 0 0
2853 189 1 0.09714259641320512 -1.3727028414583318 18.995585178204085 -23.283553379729028 0 0 0
2854 189 1 0.09919491640551158 -2.630308133711794 19.932083004361246 -24.10660692605778 0 0 0
2855 189 2 -0.1560672952674645 -2.9595522001161214 17.73787812325811 -24.241721742518212 0 0 0
2856 189 1 0.07132336986076407 -2.486597038770289 16.815036944197537 -23.83586966292104 0 0 0
2857 189 1 0.06182563892081988 -2.7212448221718413 17.729458705648998 -25.33088101884224 0 0 0
2934 194 2 -0.2159105511411013 7.700880351410658 16.097797247830474 -21.849281946652663 0 0 0
2937 194 1 0.08449833763839121 8.463807295500064 16.83923012140907 -22.204434987385444 0 0 0
2938 194 2 -0.193956334681618 5.871417586271204 17.63703965875688 -22.46814435468413 0 0 0
2939 194 1 0.1083327424621336 4.9115973350268325 18.137900070902596 -22.17962458252211 0 0 0
2940 194 1 0.08899387091488323 6.5886151692906205 18.447126296095668 -22.756410918649678 0 0 0
2941 194 1 0.07668620108158097 5.683887013256229 17.028851197911443 -23.393793927788277 0 0 0
4477 298 1 0.08789366484532174 2.6657340023257388 -22.44336576255022 -16.365311027302024 0 0 0
4474 298 2 -0.1974823270035623 3.7420929439347623 -22.491979097232996 -16.653896661375626 0 0 0
4475 298 1 0.1050286454533818 3.7881738301202676 -22.557163428391668 -17.767096402430166 0 0 0
4476 298 1 0.06749414667482311 4.157538769203322 -23.445780124571037 -16.25258942368558 0 0 0
4480 298 1 0.08987158820924615 6.175438670778996 -22.010644908295074 -17.38838953945503 0 0 0
3780 250 2 -0.1267577308889144 14.890742890398068 -23.303388293652635 -16.483546926249073 0 0 0
3781 250 1 0.1169820999188425 13.93626436648485 -23.655393002078902 -16.942083280326873 0 0 0
3782 250 1 0.09712621390011263 14.620177087281366 -22.47950146784172 -15.788408199883001 0 0 0
3785 250 1 0.08580455288143657 15.373730029573489 -21.745317426426148 -18.036623751715922 0 0 0
3789 250 1 0.2128285737420376 15.527435061241597 -23.24620721605006 -19.63756086745975 0 0 0
4576 305 4 -0.5335959301035731 11.871114474944934 -22.668419273815086 -15.68938824829971 0 0 0
3777 250 2 -0.1542149440925121 15.556484234997239 -24.48407840612267 -15.676823434866568 0 0 0
3778 250 1 0.0763689891050278 15.810776637045437 -25.34421862093608 -16.34089255491797 0 0 0
3783 250 2 0.01532925205203551 15.818592232670738 -22.62332817113611 -17.528594158082598 0 0 0
3784 250 1 0.09495413285916529 16.842758753201387 -22.38256364080151 -17.177074422938105 0 0 0
3786 250 3 -0.6650398121785148 16.043478488950605 -23.562573608076832 -18.766313688336542 0 0 0
3787 250 1 0.2038283955548497 17.02157285458884 -23.591559669272495 -19.17869251087421 0 0 0
3788 250 1 0.2030922504073542 15.812547775851032 -24.599219626377874 -18.786484701077164 0 0 0
4457 297 2 -0.1438022336392074 0.3345718357935971 -17.256894556793913 -16.548119988861764 0 0 0
4458 297 1 0.07791815171691474 1.1109870289627843 -16.510612821685903 -16.832735184349414 0 0 0
4459 297 1 0.1395274514519463 -0.5068481408449367 -16.656223697621986 -16.12535964557008 0 0 0
4460 297 2 -0.1742129651518214 -0.14669519629077257 -17.99513055199392 -17.818414527380842 0 0 0
4461 297 1 0.09656594878537079 -1.0595451915873406 -18.595601274521552 -17.614986202112497 0 0 0
4462 297 1 0.1039675076278729 0.616732106546564 -18.710410885348264 -18.185367250647072 0 0 0
4463 297 2 0.651144302939809 -0.4218771912901148 -16.841952373667606 -18.961370196601486 0 0 0
4464 297 4 -0.4892395653714304 -1.1379109267573062 -15.869422461798084 -18.684685651845918 0 0 0
4465 297 4 -0.4677155918040482 0.15920301942568255 -16.971462661650627 -20.049913720050075 0 0 0
4466 297 2 0.5436662810058003 2.4423603653385335 -18.55771077865486 -15.704452052171675 0 0 0
4468 298 3 -0.5940423695398113 2.683467845486973 -19.65103426706415 -16.429701079284673 0 0 0
4469 298 1 0.2401317345317288 1.8951754407969577 -20.151029131082733 -16.823572528985732 0 0 0
4486 298 4 -0.5197451820858912 2.8772298895595054 -20.545900359511915 -18.951112885270017 0 0 0
4470 298 2 0.1115929931369933 4.018713065668975 -19.928319411509886 -16.866978315625758 0 0 0
4471 298 1 0.122386760825855 4.619839552709844 -19.03521843601108 -16.561712458684337 0 0 0
4472 298 2 -0.08974585653484264 4.528912261055167 -21.248512751850182 -16.12619362704868 0 0 0
4478 298 2 -0.1507104517847457 6.043628634749232 -21.54567273055166 -16.38492728966494 0 0 0
4479 298 1 0.08994800868484536 6.586270275476229 -20.577280670595844 -16.430389052639004 0 0 0
4485 298 2 0.5551475829661531 3.875462692690201 -20.103931350256108 -18.45365270605823 0 0 0
4487 299 3 -0.6148376164386855 4.988202491959514 -19.733457916529396 -19.108418074307313 0 0 0
4488 299 1 0.3238766223821415 5.848561349507604 -19.4084039727063 -18.659985870278504 0 0 0
4489 299 2 0.1133896272500095 5.040560680805941 -19.90230039982051 -20.56477197388154 0 0 0
4490 299 1 0.1046016543278618 4.590933291874999 -20.912811860942362 -20.732791586448673 0 0 0
4491 299 2 0.1589799205216086 4.1531585537848414 -18.837492994273408 -21.35941501972581 0 0 0
4492 299 1 0.1134373059725726 3.1493842162262657 -18.7722986648178 -20.862149866587995 0 0 0
4495 299 2 -0.1824844085838265 4.758362459802208 -17.403288674997057 -21.432221779545078 0 0 0
4498 299 1 0.07781364312697271 4.890099311828015 -16.912623360341055 -20.437470818206634 0 0 0
4499 299 2 0.5425108644920328 6.568623920815988 -19.745865596717074 -20.900134778149397 0 0 0
4500 299 4 -0.5662640251903884 7.356661610504774 -19.347984331858413 -20.038099684876286 0 0 0
4508 300 1 0.08345848687945509 8.874785859709839 -21.522179236284014 -21.133282905216078 0 0 0
4583 306 1 0.3233121535280106 8.72873973602488 -18.533254628425563 -19.438077703600676 0 0 0
4584 306 2 0.1145263484051281 8.854379535901817 -16.657234034280968 -18.347833626371425 0 0 0
4586 306 2 -0.1373042243466987 8.109727444220928 -15.722992646395367 -19.391177827776517 0 0 0
4588 306 1 0.1033137105186951 7.175197166579647 -16.202090813062625 -19.765559224089262 0 0 0
4594 306 1 0.08097520617817192 7.9194799345815 -16.831985084781934 -21.80202912324471 0 0 0
4599 306 2 0.5444026366909087 7.714023935724557 -17.055866194996597 -17.287258636143942 0 0 0
4600 306 4 -0.5338211636289285 6.815878875838122 -17.796870410671243 -17.602489572208555 0 0 0
4601 307 3 -0.5969804841746739 7.837734775961114 -16.45778576111486 -16.08636560336569 0 0 0
4602 307 1 0.2987759742357552 8.567514097498622 -15.778250974788092 -15.868698160127838 0 0 0
3710 246 1 0.1056111475059273 13.717412931547448 -16.01671146551346 -17.493014929420386 0 0 0
3712 246 1 0.1164509013050956 15.162547156449598 -15.739493621205048 -16.461158539960618 0 0 0
4549 304 1 0.1036705930347266 14.505260389200373 -18.771612746320336 -21.468269468743067 0 0 0
4553 304 2 -0.08972199097870491 13.45923221498021 -16.06615007646179 -21.229120773782736 0 0 0
4554 304 1 0.1145303705541541 12.738476915056454 -16.444958756022096 -20.47318096912148 0 0 0
4555 304 2 -0.2131247932315676 14.91768048173286 -15.997094238428195 -20.653344064029817 0 0 0
4557 304 1 0.08251301011642304 15.116437744745097 -16.799933478370487 -19.910927743818704 0 0 0
4563 304 2 0.5699240213042857 12.199772454166931 -18.9314289770847 -21.42351871948424 0 0 0
4565 305 3 -0.5815320099391649 12.392859182384353 -19.347582519926153 -20.168965241237288 0 0 0
4566 305 1 0.2202755989660768 13.363566619418565 -19.439140192743277 -19.879126990121947 0 0 0
4567 305 2 0.09684965462124372 11.247037950928364 -19.521181508160144 -19.28876236901835 0 0 0
4568 305 1 0.09458196760332983 10.516760110682412 -20.050594972671945 -19.93924329607644 0 0 0
4569 305 2 -0.1445861734257698 11.891727765758466 -20.401960282025893 -18.151663611962547 0 0 0
4570 305 1 0.1047039768353647 12.68388357902416 -19.82712810380686 -17.618735806066823 0 0 0
4571 305 1 0.08816984678928103 12.433472614816019 -21.278529077029383 -18.587676167455392 0 0 0
4572 305 2 -0.1826923717776733 10.830127955434879 -20.902928606354596 -17.116602849973994 0 0 0
4573 305 1 0.08205943074255384 10.17028962319323 -21.671073653349314 -17.569082116400935 0 0 0
4574 305 1 0.0761295071582713 10.175555011295508 -20.055182911066655 -16.808321020215853 0 0 0
4575 305 2 0.5623879217301635 11.609679220676508 -21.50651696960104 -15.87147174814845 0 0 0
4580 305 2 0.5440394530385916 10.69765084629518 -18.093632118245875 -18.806231885548147 0 0 0
4581 305 4 -0.5372999280738397 11.481295815525563 -17.34973264932732 -18.27605483559284 0 0 0
4582 306 3 -0.5786095383297826 9.384747080862976 -17.83679784701959 -18.99684147597293 0 0 0
4585 306 1 0.1158719662148246 9.729860675031082 -16.167003803606647 -17.86490102256596 0 0 0
4593 306 1 0.1288112024195546 9.706293043440123 -16.994694231405774 -21.678134719210703 0 0 0
4558 304 1 0.07967574757217177 15.67818876408292 -16.097749651140255 -21.46374887233919 0 0 0
3653 242 4 -0.4562436055332538 -2.1246943920647396 -10.006134778461492 -15.881165895602912 0 0 0
4622 308 1 0.09595511020504244 2.420048166452237 -14.890636145054412 -15.946704689834892 0 0 0
4627 308 2 -0.1533565953861712 0.8701612263148367 -12.434418934000872 -16.19788159437043 0 0 0
4628 308 1 0.1020079555361658 0.1085002876135865 -11.712305894262967 -15.820466899112924 0 0 0
4629 308 1 0.07711610640509167 1.479589391795416 -11.849553697708014 -16.92557375002546 0 0 0
4630 308 2 0.04326993348377633 0.17715990270808657 -13.636420248426903 -16.903246203414145 0 0 0
4631 308 1 0.1305268120936922 -0.47717293558430607 -14.266558227588888 -16.269222825242966 0 0 0
4632 308 1 0.08865821129164965 0.8276091685325614 -14.255274460348321 -17.55422458685294 0 0 0
4633 308 3 -0.6670939883608161 -0.7679579061127575 -12.909915641502234 -17.910160153757566 0 0 0
4634 308 1 0.2613032954109979 -1.7251034966917103 -12.548053371977405 -17.62000512272065 0 0 0
4635 308 1 0.2261924602181918 -0.35893236410775164 -12.027899133526123 -18.331542928239138 0 0 0
4636 308 1 0.2704436865887814 -1.030830688684741 -13.442434629164145 -18.790157509998682 0 0 0
3680 244 2 -0.07913175451662355 6.747253832850995 -10.827314619049604 -16.29482587244461 0 0 0
3681 244 1 0.1133602794856653 7.319660438045146 -9.89318328272097 -16.469125296522133 0 0 0
3682 244 2 -0.224289875199519 7.3804049524674165 -11.983434605274136 -17.146353568355597 0 0 0
3683 244 1 0.09714920817627487 6.799319396794686 -12.928531418615828 -17.072955510526 0 0 0
3684 244 1 0.0609498500117626 7.429639037879606 -11.723781088875059 -18.230410986320436 0 0 0
3685 244 1 0.09175608319026284 8.42183290805907 -12.214819095350308 -16.814475402657482 0 0 0
3686 244 2 -0.20386574163698 5.258875046454972 -10.57977709827833 -16.729020637008837 0 0 0
3687 244 1 0.1175720822196869 4.740677023991697 -9.905526107117115 -16.00640768609662 0 0 0
3688 244 1 0.07124552938997621 5.191551937772434 -10.104734980761734 -17.736624269654353 0 0 0
3689 244 1 0.06478362218124349 4.661573046855758 -11.516450956047924 -16.777148739645646 0 0 0
4587 306 1 0.06282707214098457 7.762128395301303 -14.830909049633751 -18.822927710460156 0 0 0
4589 306 2 -0.07084804464321309 8.917006839427279 -15.1946681786127 -20.62794661010906 0 0 0
4595 306 2 -0.2317144302493251 8.301749723430248 -13.852060405087332 -21.177190598276507 0 0 0
4596 306 1 0.06544330960659217 8.099782068127382 -13.118032234577555 -20.36195218004237 0 0 0
4598 306 1 0.07108279236588742 7.338895216106651 -13.99914049181216 -21.716874526534284 0 0 0
4623 308 1 0.06944629939501949 3.404172081442172 -13.50328587853336 -16.43282006754261 0 0 0
2588 170 1 0.07809661996065984 14.551332905519486 -10.163205309093113 -17.611772384100203 0 0 0
3706 246 1 0.1154758923848416 12.072703753495498 -15.269319594208728 -15.79881794871303 0 0 0
3707 246 2 -0.07585419474942973 13.784632181978715 -13.981002506648377 -16.548688753578844 0 0 0
3708 246 1 0.1086324850614371 14.561906892213893 -13.307519177357829 -16.12276508951448 0 0 0
3709 246 2 -0.2151415559004134 14.46454725180004 -15.246448217086412 -17.180851730295664 0 0 0
3711 246 1 0.07851123361151786 15.071416403264871 -14.996381961282486 -18.079234337831032 0 0 0
3713 246 2 -0.1342688087975525 12.967964781433551 -13.151393013818018 -17.599914797360068 0 0 0
3714 246 1 0.06474082205921552 13.653487055408357 -12.729852511367655 -18.36807391724637 0 0 0
3715 246 1 0.1144117404565016 12.514168402508616 -12.271440990321617 -17.090693667633406 0 0 0
3716 246 2 -0.2066856610433743 11.83202118001467 -13.99124156885106 -18.291260982796473 0 0 0
3717 246 1 0.1097197166910856 10.990916344306797 -14.183374110166715 -17.586169202052222 0 0 0
3718 246 1 0.06052741642656728 11.415063907758322 -13.460516808629825 -19.177907613954883 0 0 0
3719 246 1 0.110491900554156 12.187673569375931 -14.982232465017097 -18.65016339925964 0 0 0
4556 304 1 0.07609329659254979 15.114955999181598 -15.032606986409052 -20.136214042126966 0 0 0
4559 304 2 -0.2181730301531839 13.03819400799766 -14.619713189366617 -21.67049610030954 0 0 0
4561 304 1 0.06926469243886946 13.111727432611678 -13.893881909089776 -20.828674911076718 0 0 0
4590 306 1 0.09035630620042508 9.967001375696245 -14.99662112494971 -20.32787412441006 0 0 0
2577 169 4 -0.4521676403141559 19.380614417461178 -15.290015720307036 -15.788070346363378 0 0 0
2586 170 2 -0.1997074028940344 15.598899479362657 -10.28121906939602 -17.25257866186177 0 0 0
2587 170 1 0.09477918125482886 15.708244347916917 -11.34033767850566 -16.924691600998056 0 0 0
2589 170 1 0.07184590005204852 16.26500569212296 -10.141143164715087 -18.137510228396945 0 0 0
2677 176 1 0.08340204709327712 -4.1646060592118594 -4.5792370879811495 -15.636668088119075 0 0 0
2638 174 2 0.1412194669953289 2.2262931072378236 -4.379559618022257 -15.767232946616696 0 0 0
2639 174 1 0.1095778932213948 1.953990550147585 -5.474479723930471 -15.72008743781265 0 0 0
2642 174 2 -0.2087966618120139 0.9983130111316215 -3.493253361733219 -16.175449999819637 0 0 0
2643 174 1 0.101060853870629 0.7292552508379364 -3.6392835714551346 -17.24963005121765 0 0 0
2644 174 1 0.08430707643064286 0.08148429439197885 -3.7106695279697046 -15.573302604256174 0 0 0
3652 242 2 0.6405564416878956 -1.1266437221787577 -9.293683752245242 -15.694136959100268 0 0 0
3654 242 4 -0.4685769278722388 -0.6052780257537843 -8.603876813165414 -16.578801461650567 0 0 0
2605 172 2 0.1326391778878704 8.846008609181007 -6.559466871575823 -15.866267052996164 0 0 0
2607 172 2 0.1411800707444314 8.63029636466604 -6.327183881609716 -17.410042093987904 0 0 0
2609 172 4 -0.5473474567680565 7.807814248662059 -5.159232875696322 -17.677730435212478 0 0 0
2610 172 1 0.2755662056927984 7.740852948394095 -5.170974954249397 -18.64556131714619 0 0 0
2611 172 2 -0.2077645442273684 7.98323315566958 -7.579338039225231 -18.089394606374274 0 0 0
2612 172 1 0.06791005797514831 8.658204765842573 -8.461777815730143 -18.086514621451272 0 0 0
2613 172 1 0.1201579049455794 7.049668761320343 -7.854636653828484 -17.552258451183793 0 0 0
2614 172 1 0.06288579088007583 7.7156497128325725 -7.36879120364439 -19.149697440804054 0 0 0
2640 174 4 -0.5621959871892919 3.323556443819271 -4.186428989997886 -16.748621220348813 0 0 0
2641 174 1 0.3336379505994589 4.066328379910848 -4.724853497081533 -16.456270202942626 0 0 0
2590 170 2 -0.2058616922920691 15.510295641019882 -7.840586352077679 -16.537073349623768 0 0 0
2593 170 1 0.09912497655780959 14.429930652419374 -7.795369110741669 -16.799454036070486 0 0 0
2603 172 3 -0.620448483683379 9.594001008382513 -7.790002375601263 -15.68335498563282 0 0 0
2608 172 1 0.07175777494338628 9.613353866905662 -6.1173685276901955 -17.917961229552315 0 0 0
3419 227 2 -0.1256565604820378 11.164198929273685 -3.425881217167231 -16.607326927385124 0 0 0
3420 227 1 0.1116732091131761 10.462027151291222 -4.274849647011444 -16.799885425967616 0 0 0
3421 227 1 0.1062337213227326 12.163599299517927 -3.868414521067351 -16.83658160675441 0 0 0
3426 227 1 0.07206081077373397 11.532827330074516 -3.301029806523771 -19.399198196156686 0 0 0
3427 227 1 0.09394377024346032 9.785328315014691 -3.3089501511181054 -19.18703364643704 0 0 0
2584 170 2 -0.07142248184888492 15.965078132135742 -9.275819802321472 -16.106360323300787 0 0 0
2585 170 1 0.1202812387355429 17.07192226606976 -9.271181681085585 -16.011020985181478 0 0 0
2591 170 1 0.1219456373689281 15.678922065234463 -7.087593974770055 -15.727951489446408 0 0 0
2592 170 1 0.08140602411402395 16.071537234488908 -7.489544538963916 -17.436162261066638 0 0 0
3083 204 1 0.09379034111874968 -9.423720002322495 2.5472612202615537 -17.705853633776076 0 0 0
3086 204 1 0.07335874505358948 -9.561160338732693 0.06442225535151902 -17.137286456863258 0 0 0
3076 204 2 -0.07975273713748526 -7.258399216859256 2.701319757124473 -17.88025723157063 0 0 0
3077 204 1 0.1033672523181249 -7.26941223972548 2.5614839326191494 -18.992672350608714 0 0 0
3078 204 2 -0.2165442644872557 -6.008741659773725 2.0717298614839397 -17.31618544123054 0 0 0
3079 204 1 0.08813092128478571 -5.986196953555507 2.1902221416421117 -16.20350363876512 0 0 0
3080 204 1 0.06860983840030153 -5.935141237163516 0.9723191927080459 -17.532311735044246 0 0 0
3081 204 1 0.09175106639430164 -5.077260292054221 2.572981008532284 -17.703583072884527 0 0 0
3082 204 2 -0.1416101711959669 -8.496724801267797 2.048799777075314 -17.326417708148746 0 0 0
3084 204 1 0.06497510922574529 -8.523544820678437 2.192755548206795 -16.21663046184282 0 0 0
3085 204 2 -0.22896225581271 -8.677156634170064 0.4950718799131335 -17.662189127642993 0 0 0
3087 204 1 0.08306056264988894 -8.8420178604904 0.320517656512685 -18.746278516504415 0 0 0
3088 204 1 0.07116920123632138 -7.791926511274703 -0.11128559651734268 -17.371947701853987 0 0 0
3476 231 1 0.06283489362954314 -3.8537603288566054 0.624020271734634 -16.333832911045267 0 0 0
3483 231 3 -0.6684550509106488 -3.312382457784044 0.12458052354814106 -19.174912205443523 0 0 0
3484 231 1 0.2102942910862957 -4.156626385567448 -0.41324818256076334 -18.938679996314583 0 0 0
3485 231 1 0.2442694915611134 -3.5635406922648847 0.5455100404095399 -20.078708971169878 0 0 0
2645 174 1 0.07433798838304978 1.216934459766636 -2.407723543593854 -16.04192054277106 0 0 0
3120 206 1 0.1265270902206371 -1.5539905446165763 2.766344823213878 -20.11487611826219 0 0 0
3453 229 2 0.3009855801457872 2.6063385841200515 1.6706703023753162 -18.78708856184716 0 0 0
3454 229 1 0.05473556716296243 2.586198727893292 2.4909154660233406 -19.515024649531842 0 0 0
3455 229 3 -0.5156265876506395 1.5729409704662503 0.8741469266559037 -18.43856314264886 0 0 0
3456 229 1 0.309689183720427 0.6121783451230999 0.9883753276616375 -18.823183735075915 0 0 0
3457 229 2 0.1481285723746099 1.9413791198267143 -0.030440170979055235 -17.552079014245557 0 0 0
3458 229 1 0.06554032645218269 1.2829096882870006 -0.7719488971303099 -17.110565872409623 0 0 0
3470 230 4 -0.5642124735929386 0.5094150165564506 2.8194385690061243 -15.80222707964864 0 0 0
3474 231 1 0.1135748063113845 -1.8047147219168955 2.328044884499981 -16.312063427765832 0 0 0
3475 231 2 -0.1478010231367861 -2.8410412326909342 0.3014127763773464 -16.002755608091167 0 0 0
3478 231 2 -0.1633362815821057 -2.1707559004270007 -0.5623086359413983 -17.134840615012635 0 0 0
3479 231 1 0.05582596527504062 -2.7463364305772666 -1.5084802892821054 -17.238496060109505 0 0 0
3480 231 1 0.09771105661375887 -1.1381150014606807 -0.86081601097119 -16.849105168583023 0 0 0
3481 231 2 0.5819576074357814 -2.145913750087581 0.2024242982597255 -18.51206386260263 0 0 0
3482 231 4 -0.5496113289991015 -1.1607368432096843 0.8066558514263058 -18.89347062817107 0 0 0
3433 227 1 0.2049383806594018 8.899122056396678 -1.8572607545708841 -21.10419454685535 0 0 0
3448 229 2 -0.1322354583136323 4.399130213987933 -0.5377814325148492 -16.473492436451497 0 0 0
3449 229 1 0.1154084551134568 4.056912806013293 -1.5821805328786966 -16.25693116456804 0 0 0
3450 229 1 0.1345389120272059 5.3550042869026475 -0.6473790889525699 -17.04417722648599 0 0 0
3451 229 3 -0.3344595352232246 3.6950150422655317 1.2806514161110145 -18.097174313484814 0 0 0
3452 229 2 0.1367712855110774 3.358678970050606 0.21630277432428605 -17.330749366805918 0 0 0
3422 227 2 -0.1661068989124654 10.850595499286898 -2.224385559796594 -17.534579872390722 0 0 0
3423 227 1 0.07517023174324931 11.654087493256105 -1.4568948666967618 -17.470606237242947 0 0 0
3424 227 1 0.108153873098276 9.916634768494916 -1.7139145139349183 -17.19877232906071 0 0 0
3425 227 2 -0.1427474533719552 10.688067488248484 -2.6715629916363053 -19.034896424602334 0 0 0
3428 227 2 0.01477238496582323 10.595188976059552 -1.3132780623527476 -19.796986362417393 0 0 0
3429 227 1 0.07646694753341264 11.549573081077396 -0.8203127142486036 -20.07178188677082 0 0 0
3430 227 1 0.09442536866724857 9.870468729281622 -0.5688580177435115 -19.409661819734584 0 0 0
3431 227 3 -0.6660831044700881 9.952195337753583 -1.7526750773992326 -21.14498320864831 0 0 0
3432 227 1 0.1960627406428684 10.218374916058442 -2.6997041710740435 -21.539118233838806 0 0 0
3045 202 2 0.1108519846011486 -12.611559584785065 9.181954050271633 -16.946800810039925 0 0 0
3046 202 1 0.1305079483517601 -13.64699656172692 8.847325123098177 -16.707871606499584 0 0 0