LAMMPS data file via write_data, version 23 Jun 2022, timestep = 15

5041 atoms
7 atom types

-40.2299 40.2299 xlo xhi
-40.2299 40.2299 ylo yhi
-40.2299 40.2299 zlo zhi

Masses

1 1.00794
2 12.0107
3 14.0067
4 15.9994
5 32.065
6 24.305
7 55.845

Atoms # full

2199 150 4 -0.4645427328902397 2.7082738861897524 3.875453866752926 -28.14913295381237 0 0 0
2198 150 4 -0.4746679047515691 4.854611410709917 4.150960927069862 -28.400843193925347 0 0 0
2255 154 2 -0.1362504707668885 6.340198126699524 8.265436860508768 -28.123271660103697 0 0 0
2256 154 1 0.1084428869862474 6.838018883722605 7.284506938601145 -28.300774242170753 0 0 0
2257 154 1 0.08030353259100891 6.555092505205285 8.894800262345525 -29.02054323492656 0 0 0
2258 154 2 0.06108890590569263 4.794128417974462 7.97151264811563 -28.03940921673637 0 0 0
2260 154 1 0.1135159100228705 4.466914329601392 7.292044888418 -28.85511842024974 0 0 0
2263 154 2 0.6570090641789544 2.8544024460168522 9.677175345946138 -28.06462025881664 0 0 0
2267 154 3 -0.7011258448417986 2.556372633028445 11.038185963714913 -28.191806761759718 0 0 0
2261 154 3 -0.5757816475697393 4.153241269291338 9.275428280583608 -28.322883133548366 0 0 0
2262 154 1 0.2225424522191544 4.596474317464081 10.11058385285577 -28.670532662849485 0 0 0
2268 154 1 0.2346150136727512 3.315446240914532 11.666889417382565 -28.386944858536367 0 0 0
2066 142 4 -0.4584423880841541 2.3590968609007623 -9.419822030132519 -22.321295903706407 0 0 0
2075 143 1 0.1070530261543232 -3.770124953354395 -4.022977796351031 -22.231720658361244 0 0 0
2076 143 4 -0.5424989610183959 -3.098543861498293 -4.993084070791576 -24.02296722318369 0 0 0
2062 142 2 -0.1671131482107102 1.4702753847652752 -7.107066900502547 -22.084904406723894 0 0 0
2063 142 1 0.08058762834156925 2.4450577647286003 -6.752860719447697 -21.693187834501746 0 0 0
2064 142 1 0.1241590131245844 1.1461037022304186 -6.37836123531191 -22.855975574497755 0 0 0
2065 142 2 0.6685547095562071 1.6899319546532645 -8.534537687892971 -22.867502553832637 0 0 0
2067 142 4 -0.4128247481717616 1.1269317436175539 -8.677813123575115 -23.960261260546122 0 0 0
2072 143 2 0.1011414308229465 -1.626465422563595 -3.579981816858178 -22.579437598864818 0 0 0
2073 143 1 0.1229114932601713 -0.9003000807132151 -3.7171167755698167 -23.3945839690774 0 0 0
2074 143 2 0.1353864610584755 -3.0838668441077637 -3.867284018290753 -23.09462464626036 0 0 0
2077 143 1 0.3132694503846412 -2.7144450109622316 -5.729285692479763 -23.548738859468678 0 0 0
2133 146 2 0.6507115500355745 2.950710812713032 -5.092331784360137 -25.058722994039886 0 0 0
2134 146 4 -0.4373150689769909 1.9552684643662048 -4.98543677780539 -25.784519604488867 0 0 0
2130 146 2 -0.1735409480188189 3.3063410125175032 -3.9185101169293834 -23.99014698408304 0 0 0
2131 146 1 0.09948110822259765 3.1811794182454376 -4.305597028757578 -22.955086301866302 0 0 0
2132 146 1 0.06860543535750137 4.386053921078384 -3.693746841325458 -24.10278359847144 0 0 0
2135 146 4 -0.4413191196214346 3.7324420873583732 -6.053247965236653 -25.107724966732217 0 0 0
3290 220 1 0.2446048267131927 8.340833793287304 -5.37022947124619 -21.99542241006851 0 0 0
3291 220 1 0.2496355109689022 6.571083140307709 -5.853293147514233 -22.036555706908988 0 0 0
2658 179 1 0.07769682741512601 -11.46758869057865 2.6361005855968958 -22.31577342739904 0 0 0
2078 143 2 -0.1988966932523843 -3.5776816880494438 -2.618913656239449 -23.88857709313911 0 0 0
2080 143 1 0.1017546877949927 -4.51553278180116 -2.8523859253443318 -24.450840029955906 0 0 0
2081 143 1 0.06339272241404746 -3.8010657377874812 -1.7529319313757623 -23.222813140751917 0 0 0
2150 147 3 -0.6563241756829021 -3.563228567219935 1.2190661549366515 -23.40460771413429 0 0 0
2151 147 1 0.2173329808642684 -3.4762686517009262 0.46185209749885336 -24.088024974107498 0 0 0
2152 147 1 0.2472923496812219 -4.478367982163521 1.119960656078991 -22.955085631698864 0 0 0
2079 143 1 0.09659103831190698 -2.816830872878724 -2.294837491386506 -24.634911178652587 0 0 0
2082 143 2 0.5652041120735019 -1.3462534621216906 -2.1277272524929725 -21.940311187619862 0 0 0
2083 143 4 -0.5741025562011611 -0.7939033509316343 -1.3329560593456937 -22.680171829848327 0 0 0
2123 146 3 -0.5750811994087892 2.43169861055433 -1.9043205683195512 -22.043595529999656 0 0 0
2124 146 1 0.3337278344023211 1.62635287241705 -2.593623610734735 -21.88491962041548 0 0 0
2125 146 2 0.1025963395421289 2.919476446551085 -1.5593670426425523 -23.34495085496599 0 0 0
2127 146 2 -0.1388397788988144 2.437913465913975 -2.6382144203163183 -24.264370076859656 0 0 0
2128 146 1 0.09565138416474649 2.5575764512833303 -2.366868944582694 -25.349883322814794 0 0 0
2129 146 1 0.1228399914560155 1.341885412686187 -2.8811555990142126 -24.13507550627306 0 0 0
2136 146 2 0.5591108623018342 2.644336760617158 -0.1217227862677004 -23.66784732157122 0 0 0
2138 147 3 -0.5664624002508927 1.456462605885072 0.45455653236840304 -23.256134252072037 0 0 0
2139 147 1 0.3132240149472772 0.6791305161110875 -0.16669402626710014 -22.925573100557276 0 0 0
2140 147 2 0.08643382561622467 1.2839811600804476 1.9241128661728426 -23.357871639873785 0 0 0
2141 147 1 0.09343898424673444 1.3511186705917089 2.154948954103448 -24.436808978678286 0 0 0
2142 147 2 -0.1321927459600486 -0.13280425522632033 2.278815868003246 -22.767697808159127 0 0 0
2144 147 1 0.1405835438612555 -0.2922197196165794 1.8267021240275205 -21.756882912327335 0 0 0
2145 147 2 -0.1737470763394664 -1.2125744782713668 1.825236771327125 -23.799134328441696 0 0 0
2146 147 1 0.1051909111872926 -1.099105273131614 0.775661487651234 -24.145843667843483 0 0 0
2147 147 1 0.06467681886383188 -1.1776302874922977 2.463127941392627 -24.709252679005047 0 0 0
2148 147 2 0.5720785438045026 -2.55891117513894 2.0361053011049814 -23.006764272304284 0 0 0
2149 147 4 -0.5033597038341506 -2.6654420573548423 2.8567603961180015 -22.133083529511303 0 0 0
2153 147 2 0.5612996092975957 2.3425649802279755 2.784584708551456 -22.51884585332151 0 0 0
2195 150 1 0.1031534401376205 3.1503205774796705 2.8936936378902147 -25.828089947689282 0 0 0
2126 146 1 0.09597555661979279 4.030431239696474 -1.6397848650302635 -23.253402135552186 0 0 0
2137 146 4 -0.576318787883478 3.5199435972934947 0.4365353788426557 -24.270145909906987 0 0 0
2174 149 3 -0.5837146067720587 5.3747660682914855 1.68676709630661 -21.779268213126777 0 0 0
2175 149 1 0.3385500704529414 4.726769882336751 0.8716304313690386 -21.7847821195051 0 0 0
2176 149 2 0.1004006597508387 6.691292421368773 1.6112182920355158 -22.53638779743884 0 0 0
2177 149 1 0.1066920514613794 7.447967681995744 1.93551921650749 -21.797298786367076 0 0 0
2178 149 2 -0.09660270017490812 6.942267216763651 0.18552043951042796 -23.011610002402 0 0 0
2179 149 1 0.1056045619947807 6.0920562257352096 -0.1480661495935784 -23.641563431525903 0 0 0
2180 149 2 -0.2187746754588438 8.240903999402342 0.11929138558874545 -23.79852944901376 0 0 0
2181 149 1 0.08150809534301851 8.118818427598814 0.3927252347525364 -24.875988917529426 0 0 0
2182 149 1 0.1015292532860967 9.013220031969286 0.8149156575382169 -23.373153629672935 0 0 0
2183 149 1 0.07158790850425271 8.664858576930419 -0.9187323869174654 -23.754432038567522 0 0 0
2184 149 2 -0.19734012596931 7.098250122930344 -0.7818729353966601 -21.84837497404943 0 0 0
2186 149 1 0.06484216925881105 7.129537499544527 -1.8481580656637984 -22.19863942800066 0 0 0
2188 149 2 0.5949112445399799 6.620010422583825 2.6216746361453365 -23.81014102614701 0 0 0
2190 150 3 -0.6124850738074095 5.523474857301622 2.565459086776848 -24.537871825224375 0 0 0
2191 150 1 0.3129413491344448 4.73222303208263 1.9732915141408363 -24.21811030493845 0 0 0
2194 150 2 -0.1585134438892718 4.096339752886901 2.908528192012349 -26.403665395521408 0 0 0
2196 150 1 0.1047338972040631 4.273869564146395 1.8626642022420021 -26.72466289857454 0 0 0
2243 153 3 -0.6554303206505221 9.093549138144166 2.190714955159847 -26.371122074756173 0 0 0
2244 153 1 0.236375778348503 8.278226536805056 2.3593401092239423 -26.975308436280926 0 0 0
2245 153 1 0.2532984830696985 9.178323816913034 1.2307585633077713 -26.013539144264083 0 0 0
2242 153 4 -0.4996592597506281 10.93605858621207 2.8318550963546882 -25.27508106993489 0 0 0
3934 262 2 -0.1376206660730075 -19.08556878093549 6.594181692084791 -21.920024822920702 0 0 0
3935 262 1 0.1115194972916927 -19.637935047466375 7.488324841824217 -22.301905245402896 0 0 0
3937 262 2 -0.2091338793256886 -18.237666938989264 6.034815658198172 -23.164839007355006 0 0 0
3938 262 1 0.09940462409926626 -17.726071527759096 5.103006342106307 -22.854981607912713 0 0 0
3939 262 1 0.08043205540860171 -18.878434275156494 5.807739316939302 -24.045658375341304 0 0 0
3940 262 1 0.1039235792346921 -17.480506258780554 6.7850220843712625 -23.471645803250336 0 0 0
2599 175 1 0.1285543845755093 -9.466838410243403 7.142192037164292 -22.29420940138901 0 0 0
2640 178 2 0.1422303819734396 -13.941084846010387 7.743008899362794 -21.764410389795625 0 0 0
2641 178 1 0.1485236365586551 -14.890733723216174 8.314159769838897 -21.86387929630917 0 0 0
2642 178 2 -0.1667541572875029 -12.946217754905256 8.093995827170792 -22.93957348420307 0 0 0
2643 178 1 0.1164841955008351 -11.919970848434927 7.691473507741514 -22.779239848912834 0 0 0
2644 178 1 0.09378495677215917 -13.317083818940736 7.687555314178563 -23.907947740933928 0 0 0
2645 178 1 0.134254215593264 -12.839904917845136 9.19505586168312 -23.07161664172329 0 0 0
2646 178 2 0.5394330984128962 -14.279398545786806 6.1500992885356345 -21.869034447266998 0 0 0
2647 178 4 -0.5302583192504012 -14.705931030524093 5.788522559869802 -22.93708497015835 0 0 0
2651 179 1 0.1060474077978399 -14.979561233475904 3.7994340832945133 -21.742969796265026 0 0 0
2656 179 2 -0.2116391292475765 -12.319615648298008 3.3516120173148396 -22.225385154288475 0 0 0
2657 179 1 0.1115820247062455 -11.898606583309443 4.3731996706537855 -22.374598060669335 0 0 0
2659 179 1 0.08171774319082226 -13.024118484866095 3.1597583617440574 -23.064518678467405 0 0 0
2524 171 2 -0.1053409430065085 -3.4986592682582396 7.701250504027063 -23.234199133770332 0 0 0
2525 171 1 0.1357728883788602 -4.576019819890182 7.647063694522654 -22.937374958577784 0 0 0
2526 171 1 0.1028063710876947 -3.3913036920903643 8.573555159118118 -23.922420533606562 0 0 0
2527 171 2 0.03841497998272619 -3.0545853325535246 6.412848202030228 -23.985759725492063 0 0 0
2530 171 3 -0.6842447867630692 -4.299061379025282 6.262118615178301 -24.876823553156594 0 0 0
2531 171 1 0.227577496018647 -4.27597362283584 5.5184830955893664 -25.632910089029412 0 0 0
2532 171 1 0.3342066730981949 -5.192447518483704 6.076991549108341 -24.288289111991347 0 0 0
2533 171 1 0.2272542862218416 -4.533583015812363 7.135013100085798 -25.433933449569437 0 0 0
2603 175 2 0.6467519433049248 -6.7999002770128145 6.016824540551298 -22.673782783865327 0 0 0
2604 175 4 -0.5124522177443572 -7.055458889082835 6.741017615741677 -23.64467889689875 0 0 0
2605 175 4 -0.5169251761221147 -5.799006384252564 5.269236358359214 -22.661150045110407 0 0 0
2143 147 1 0.09379071109869053 -0.2524956099459547 3.377429066615216 -22.64194686829086 0 0 0
2154 147 4 -0.5830107427223784 2.73306865459835 3.8451594639287925 -22.995148023581134 0 0 0
2209 151 2 -0.02127638743273414 2.6363179054143755 7.662829109019606 -22.941818623821714 0 0 0
2210 151 2 -0.08188864526036696 1.7661672774094916 7.018055705073226 -23.873271650616076 0 0 0
2211 151 1 0.1177462757113038 2.0006939905111447 6.011504991075713 -24.267530832912858 0 0 0
2212 151 2 -0.08859643433860585 0.6079905608304818 7.673778890136245 -24.31508002253179 0 0 0
2213 151 1 0.08777073238153668 -0.03047456454447292 7.181776250815806 -25.072003752714746 0 0 0
2214 151 2 0.2268691223131131 0.24660398014632 8.966555438514568 -23.828834797769897 0 0 0
2217 151 2 -0.09949265916843165 2.290400498911084 8.963125280156952 -22.46131653521783 0 0 0
2264 154 3 -0.6854756481476227 1.8669558725346576 8.805839701345127 -27.668043482590246 0 0 0
2265 154 1 0.2663624474521071 2.139018768809504 7.8357221344103545 -27.747457193330966 0 0 0
2266 154 1 0.2651974426306558 0.9515616994716426 9.239214478817235 -27.595475642230184 0 0 0
2521 171 2 -0.1561610265704636 -2.575231235796521 7.771596365667806 -21.964869092495235 0 0 0
2523 171 1 0.08185660312516184 -1.5776276237091642 7.339853324932341 -22.215808679382796 0 0 0
2528 171 1 0.1264210376709564 -3.020667476825615 5.467709791872435 -23.40328179749017 0 0 0
2529 171 1 0.07906060456660866 -2.203778787859726 6.516212197127898 -24.689111861957517 0 0 0
2189 149 4 -0.5704430859262044 7.6320373990414625 3.260476022376272 -23.990963628168544 0 0 0
2192 150 2 0.1078100537503121 5.334388492699248 3.4812167419033866 -25.658633750369887 0 0 0
2193 150 1 0.1182333100792976 6.2272158071352575 3.3525423777345638 -26.302274219994146 0 0 0
2197 150 2 0.6390375971038875 3.8733180867547548 3.799787564951994 -27.735721973251152 0 0 0
2200 150 2 0.5758093883375731 5.432901088036011 5.012442899549726 -25.147698325312486 0 0 0
2201 150 4 -0.5508185814739485 6.0918012554447944 5.7376655962392755 -25.8351046382934 0 0 0
2202 151 3 -0.5919458696517064 4.763300254693295 5.388337518383163 -24.044631565214384 0 0 0
2203 151 1 0.3262951075380354 4.191446941581765 4.697163482157302 -23.507117493910506 0 0 0
2204 151 2 0.1040085822929214 4.960253606690598 6.7689723009246245 -23.574437064086766 0 0 0
2205 151 1 0.1006613142020781 4.665443455615976 7.418923465290945 -24.42193445932538 0 0 0
2206 151 2 -0.157993638536713 3.942641896771858 7.04456736469985 -22.3917646900892 0 0 0
2208 151 1 0.1038533659057229 3.7329658129789625 6.11222681858628 -21.81904787834074 0 0 0
2221 151 2 0.5676546115531131 6.484835241742912 7.011662619350426 -23.169326568675356 0 0 0
2222 151 4 -0.5880632996634038 6.987663406999319 8.066924373204468 -23.51481173999251 0 0 0
2223 152 3 -0.605560658219969 7.056871977460858 6.066941168244526 -22.418153655151304 0 0 0
2224 152 1 0.3132542816135963 6.495423602532688 5.228533424181658 -22.211362136198677 0 0 0
2225 152 2 0.1010951092375953 8.438633258002591 6.207402433610077 -21.952504326957317 0 0 0
2229 152 1 0.105656342721726 8.531253896776672 4.00408845079768 -21.837730961106672 0 0 0
2235 153 1 0.324389544386723 8.46935539334348 4.885825289105696 -24.16277354001649 0 0 0
2240 153 1 0.1049447009590634 8.542241114380879 4.711966395547184 -26.562048417082945 0 0 0
2248 154 3 -0.5822387301400679 8.719978820399751 7.600746585649617 -25.96191418862235 0 0 0
2249 154 1 0.2994681099981166 8.014394515415363 7.045415611108666 -25.46613490997869 0 0 0
2250 154 2 0.1179461810332642 8.426131997827571 8.84354669453407 -26.63447094256715 0 0 0
2251 154 1 0.1237810125635837 9.02164148579393 8.85162667105996 -27.569368039959937 0 0 0
2252 154 2 -0.1385400228516372 6.868008909832837 8.98507687419742 -26.83437208677641 0 0 0
2254 154 1 0.118933476750663 6.3239016418201555 8.671429861637879 -25.90549075656935 0 0 0
2259 154 1 0.1035627634182426 4.438919851776112 7.575339187378169 -27.060679549220307 0 0 0
2232 152 2 0.5556019642483514 9.496756448512711 6.33675808317092 -23.143869864898914 0 0 0
2233 152 4 -0.5570709169507174 10.445239987891275 7.069773323445428 -22.997174413751733 0 0 0
2234 153 3 -0.593769820848424 9.330441251190285 5.462717417789322 -24.155502347720695 0 0 0
2236 153 2 0.1124114477168499 10.16090818044643 5.62635497714796 -25.35425829613903 0 0 0
2237 153 1 0.1244069410950846 11.226622822439142 5.480432800093758 -25.095043831275117 0 0 0
2238 153 2 -0.1708486733527512 9.634002839737905 4.5891443742895115 -26.40487369162239 0 0 0
2239 153 1 0.07821406701286265 10.115380855600852 4.786270712786969 -27.383133036045137 0 0 0
2241 153 2 0.6043091134381003 9.973645116996671 3.1179527998483527 -25.93273768358328 0 0 0
2246 153 2 0.5479159418653498 9.957691270500533 7.070323856194864 -26.022709696510848 0 0 0
2247 153 4 -0.5207971777431508 10.901249225719791 7.518894351189538 -26.62110625066037 0 0 0
2293 156 1 0.2948379701550912 10.470004562257667 9.244791735406823 -23.36237703202267 0 0 0
2297 156 2 0.5498415567714328 13.143907731803996 9.174618507630594 -22.737118697463426 0 0 0
2298 156 4 -0.5245664098252462 14.158059505722004 8.968147700058239 -22.147677003517114 0 0 0
2299 157 3 -0.5763277137090058 12.885200644688203 8.826607079215696 -24.042374301467458 0 0 0
2300 157 1 0.2654083356598007 12.101939309462983 9.232955627957255 -24.558270115171336 0 0 0
2301 157 2 0.04881487744205332 13.981862705223646 8.213781616375254 -24.802111238021965 0 0 0
2302 157 1 0.1034832829646881 13.518164791832515 8.209408666601407 -25.813048739092434 0 0 0
2303 157 1 0.1089097241981106 14.829988888344376 8.93000558137981 -24.781728701394794 0 0 0
2304 157 2 0.5813995346592066 14.327762047409617 6.778803129438006 -24.192995173851973 0 0 0
2306 158 3 -0.5981520095765848 13.301242141474079 6.119145293845897 -23.608629087136872 0 0 0
2307 158 1 0.3036880561585174 12.445531355138598 6.6753062150664535 -23.542468085947146 0 0 0
2308 158 2 0.07219600951839319 13.511100281513713 4.799526632588238 -23.01800663241381 0 0 0
2309 158 1 0.1024368025080777 12.578440103629337 4.226666361516753 -23.225788402414643 0 0 0
2310 158 1 0.1287615422395995 14.349767554527153 4.3283745927745345 -23.58030719505396 0 0 0
2305 157 4 -0.4874739036766951 15.43444630946615 6.338350033214375 -24.355244466689175 0 0 0
3947 263 2 -0.1426605144121726 -17.30856637989935 11.638440028738021 -22.280907964424557 0 0 0
3948 263 1 0.08190762305812017 -17.09130662269341 12.705634389565855 -22.520564849653574 0 0 0
3949 263 1 0.1253699323733322 -18.302026534511892 11.43005473246044 -22.73012161118615 0 0 0
3950 263 2 0.5802096591896673 -16.21942107438985 10.70599797548901 -22.9423950272094 0 0 0
3952 263 3 -0.6721973142061725 -16.614007288051656 10.338276226844892 -24.180708170617955 0 0 0
3953 263 1 0.2275065005017823 -17.42966442588161 10.683457628803856 -24.701613704683865 0 0 0
3954 263 1 0.2505430849994162 -16.070312218517106 9.726604541682857 -24.798622095057542 0 0 0
3951 263 4 -0.5190040949847389 -15.172003133774858 10.379324855072205 -22.45912844326108 0 0 0
2510 170 2 -0.09328685847251743 -4.275242867885581 15.141088176881347 -21.874979902325276 0 0 0
2511 170 1 0.07356513615508871 -4.091611946383803 15.067610899320282 -22.963550144795608 0 0 0
2584 174 1 0.09584233883357303 -7.726671888367703 11.429371250572826 -22.456907156053756 0 0 0
2587 174 1 0.08230821558394943 -6.669870193720205 13.455132970572405 -22.170097948809314 0 0 0
2215 151 4 -0.5760894000951853 -0.923524218807492 9.604647370805914 -24.294445039928174 0 0 0
2216 151 1 0.2670983314105094 -0.8892001423761666 10.460461413012204 -23.813177514110333 0 0 0
2218 151 1 0.08072290140691901 2.9581754397683464 9.47687308800397 -21.746108638779592 0 0 0
2219 151 2 -0.1101798497095715 1.113689697097796 9.597754990631502 -22.889782151624836 0 0 0
2220 151 1 0.08404011667966947 0.8646136988018344 10.611752183270154 -22.516699743963493 0 0 0
2269 154 1 0.2495769929818527 1.7204467511058772 11.440506492743022 -27.80146877955866 0 0 0
2441 167 1 0.08608459741320769 2.07135789284549 12.767898904217182 -21.979401339906104 0 0 0
2520 171 1 0.09772344099150415 -1.9564807104034567 9.925575696754507 -22.102803283666606 0 0 0
2253 154 1 0.08859871242477471 6.621681165433181 10.058722215184527 -26.99407284988075 0 0 0
2270 154 2 0.5594135663793502 8.894465791385851 10.14773308751528 -25.81469278774988 0 0 0
2272 155 3 -0.589343039548091 8.635463675882383 10.168255980691026 -24.494549818050448 0 0 0
2273 155 1 0.320808554336121 8.10018658679986 9.363852025675522 -24.10421011865523 0 0 0
2274 155 2 0.1165257459013894 8.929245560637748 11.364385564480727 -23.737638705013698 0 0 0
2275 155 1 0.1276164851925815 9.077407315785116 12.200876241675486 -24.451492745845332 0 0 0
2276 155 2 -0.1552026052420083 7.6593268740167755 11.633855712906584 -22.823564634950007 0 0 0
2277 155 1 0.07958348141134033 7.926617716560601 12.43489069034942 -22.094966734268432 0 0 0
2278 155 1 0.08405789147307788 7.3858411460802555 10.727104263029673 -22.23534278667257 0 0 0
2279 155 2 -0.002489527454404739 6.452570377708996 12.079636450413801 -23.685248583626773 0 0 0
2280 155 2 -0.07878393947752235 6.402137320405069 13.412566866033655 -24.190003468342884 0 0 0
2281 155 1 0.07883655957393421 7.195571544790674 14.139256210960978 -23.954678449091965 0 0 0
2282 155 2 -0.0778403602733507 5.264403058360463 13.850428800360344 -24.897133736630217 0 0 0
2283 155 1 0.0861131211074251 5.184669704731288 14.927044114255196 -25.130621720971952 0 0 0
2284 155 2 -0.07222932905446949 4.2072703202195845 12.95360732922231 -25.21121254151327 0 0 0
2285 155 1 0.08628870107972152 3.302589282953999 13.32210024188951 -25.735288727140695 0 0 0
2286 155 2 -0.07646358349919598 5.35713019049211 11.202087547691082 -23.91696563572346 0 0 0
2287 155 1 0.09232040778724264 5.351375115593292 10.21411173373821 -23.420281617116366 0 0 0
2288 155 2 -0.08245342084332967 4.284033958590609 11.614695838753569 -24.751612319207155 0 0 0
2289 155 1 0.08926984037630148 3.458462755042495 10.92036956482108 -25.005130107950926 0 0 0
2444 167 1 0.08317674435340608 3.930215664545167 14.295714882079178 -22.326541452772627 0 0 0
2271 154 4 -0.4941770020785934 9.339180875790197 11.043558934257844 -26.48269918714008 0 0 0
2290 155 2 0.5361195688008489 10.21520610326452 11.196976189159676 -22.80177096071974 0 0 0
2291 155 4 -0.516070696721352 10.586194803781554 12.153674551755987 -22.165261215153006 0 0 0
2292 156 3 -0.58009525001366 10.79275666494843 9.98785301473918 -22.742915420819028 0 0 0
2294 156 2 0.06422912462749898 11.976316763546329 9.777166021008592 -21.892877472844813 0 0 0
2507 170 1 0.08743469692316024 -5.8684183812574355 16.64777186704268 -22.043793528127186 0 0 0
2447 167 4 -0.5439351229594412 1.5643219011748577 15.558672786657395 -22.45207597197866 0 0 0
3765 251 1 0.3492236780500207 0.33504335173827504 16.48273457591228 -21.97153139065184 0 0 0
3768 251 2 0.3731926832799768 -1.3410126439248933 17.78283229344444 -22.03290818648726 0 0 0
3769 251 1 0.05586010303668672 -1.3963699775603828 18.076493635437696 -23.141761090100037 0 0 0
3357 224 3 -0.6674215048316855 4.027805452062657 -9.891954289817626 -17.512181139981138 0 0 0
3358 224 1 0.2199351717385488 3.1319725548591695 -10.20174060671084 -17.117972970307882 0 0 0
3359 224 1 0.2601238027579982 3.9619991537129153 -10.095660646443209 -18.51433409244388 0 0 0
3373 225 1 0.0814822470882246 6.201569239863009 -13.326881626357466 -15.665204249694122 0 0 0
3374 225 2 -0.06256137440122302 7.605964732345806 -11.850691073611536 -16.399370841062563 0 0 0
3375 225 1 0.09266317685274711 7.442046951007143 -12.14747283023007 -17.449880382649376 0 0 0
3378 225 2 -0.06863835171508804 8.481615370929111 -10.777162791606411 -16.085100981227093 0 0 0
3379 225 1 0.07727393131473582 9.003332495398533 -10.22244050523626 -16.890808086645773 0 0 0
1939 134 1 0.1224765198183611 -15.136036622807122 -4.350011585885602 -16.026980993966045 0 0 0
1940 134 2 -0.1534524068294417 -13.09503913921948 -3.7799604181058863 -16.5369812118481 0 0 0
1941 134 1 0.08803869803795235 -12.82214786248589 -4.679384267643595 -17.146381556798623 0 0 0
1942 134 1 0.09557840840244257 -12.153877633822423 -3.432658480132621 -16.044503577616297 0 0 0
1945 134 1 0.08710560446457377 -15.29646739480128 -3.8699568210119075 -18.415856964337816 0 0 0
2045 141 2 -0.1559327642212665 -3.4404877823689692 -4.597456077722197 -17.210564249890417 0 0 0
2046 141 1 0.1084666523684819 -3.2433175338983764 -3.5959149639302583 -16.759843834500092 0 0 0
2047 141 1 0.09746682287148012 -4.157669330614469 -5.109217793144963 -16.52525308011751 0 0 0
2048 141 2 0.5466097519310449 -4.127026166302812 -4.455190137594851 -18.63253899668543 0 0 0
2049 141 4 -0.55716994177289 -3.578638922839551 -4.422239195010893 -19.705176586196 0 0 0
2050 141 3 -0.6787873507947226 -5.463109939858953 -4.34106627387031 -18.45466502860071 0 0 0
2051 141 1 0.2216898094696086 -5.907404240809998 -4.417625527937147 -17.531962480895213 0 0 0
2052 141 1 0.2459722894415449 -6.112208809371476 -4.325082550495953 -19.24834092662837 0 0 0
2031 140 2 -0.08424492875450011 2.9968104640168294 -5.109180252437578 -16.272580077930026 0 0 0
2035 140 2 -0.06661179077326394 1.5284139838918176 -7.511428991521873 -16.401412101795 0 0 0
2036 140 1 0.08813955586498468 0.9509787922196906 -8.447973921694214 -16.472104515537954 0 0 0
2037 140 2 -0.07753817660557598 2.355729143712723 -7.137842269933555 -17.48151948848663 0 0 0
2038 140 1 0.08037262627856524 2.432583539340524 -7.780341832928976 -18.377668520694417 0 0 0
2040 140 4 -0.5040664589595877 -1.9861397350427221 -7.751141275265201 -15.703407510354278 0 0 0
2041 141 3 -0.5792032126433676 -1.6287409878109151 -5.501510061055622 -15.854287151765874 0 0 0
2043 141 2 0.1136401432855013 -2.1751226796664542 -5.524217917179657 -17.22649279364426 0 0 0
2044 141 1 0.1138003783366577 -2.5650177262856872 -6.534940472182593 -17.432787241653827 0 0 0
2053 141 2 0.5841955448166859 -1.007493538695874 -5.138088395908479 -18.26946908950766 0 0 0
2054 141 4 -0.5445067497361706 -0.39725506119317505 -4.110527766367052 -18.1762882746871 0 0 0
2055 142 3 -0.605706746526626 -0.9014065609034302 -6.074131850195324 -19.235856505847845 0 0 0
2056 142 1 0.2232926967340099 -1.401603759020976 -6.95853410170995 -19.151650443725025 0 0 0
2057 142 2 0.09244969420905835 0.23319362214821437 -5.928783733396995 -20.15026021699734 0 0 0
2058 142 1 0.09225438913733316 1.1283683793939943 -5.770702546995006 -19.518340639162773 0 0 0
2059 142 2 -0.1742640797103196 0.4121341566353239 -7.275099985915782 -20.963164933993255 0 0 0
2060 142 1 0.0951066026846035 -0.548361590204939 -7.6298186808078095 -21.400737542411328 0 0 0
2061 142 1 0.08412605500587426 0.7216600625830549 -8.057252678801516 -20.233372245632058 0 0 0
2068 142 2 0.5783688209898162 -0.061071344600246893 -4.709420399326687 -21.132832129797844 0 0 0
2069 142 4 -0.597513698299156 0.9287625984222848 -4.087479951571266 -21.49430883868296 0 0 0
2070 143 3 -0.613937250893105 -1.322347067670656 -4.576244074404261 -21.572034230765766 0 0 0
2071 143 1 0.2949460088638403 -2.0249386001745937 -5.06448622194374 -21.017789315795426 0 0 0
2108 145 1 0.09005485883656961 2.8959922028256986 -3.71302221804863 -19.463654551227894 0 0 0
2032 140 1 0.07476523990907791 3.584562245191944 -4.174016292681278 -16.259041262601727 0 0 0
2033 140 2 -0.08275847600785796 3.133725272496967 -5.953058577715969 -17.403129393659945 0 0 0
2034 140 1 0.07918546401300963 3.8380438301998194 -5.703968714609403 -18.21932108185184 0 0 0
2117 145 2 -0.07311181202104962 5.433610946682103 -3.1608120047265014 -19.470608784008206 0 0 0
2118 145 1 0.07448943073981623 5.050790521683026 -3.66793482454469 -20.376526818918162 0 0 0
2120 145 1 0.08043323388961025 7.531382992810601 -3.5011135936528723 -19.919937731548877 0 0 0
3272 220 2 0.1031747942554837 8.776143174576204 -4.596160752831524 -15.84434731120626 0 0 0
3273 220 1 0.1064341411514485 7.700471244803612 -4.308362247550014 -15.855578515634939 0 0 0
3274 220 2 -0.1448845480829021 9.26154345321956 -5.276760914404122 -17.17028082376599 0 0 0
3276 220 1 0.1025263794921196 9.053326378134724 -4.610700697924677 -18.0432433623804 0 0 0
3277 220 2 -0.1406962991251188 8.561584834472676 -6.685380279153717 -17.31264087616814 0 0 0
3278 220 1 0.113017466364958 7.4524623472644675 -6.586641567566906 -17.32090396142286 0 0 0
3279 220 1 0.09091819105290321 8.768828413892807 -7.325600313606809 -16.42376613432102 0 0 0
3280 220 2 0.03517402155258471 9.024890864766464 -7.414804495581003 -18.627799169057525 0 0 0
3281 220 1 0.1015469275734873 8.427037545740506 -8.332648663046914 -18.81593262637254 0 0 0
3283 220 3 -0.5570282191925539 8.799293048462573 -6.499495719732333 -19.768998264974655 0 0 0
3285 220 2 0.671440645007905 7.588287013198439 -6.534950402991327 -20.465406079046385 0 0 0
3286 220 3 -0.7037847578202024 6.531547757741492 -7.273041461445021 -19.972490484824785 0 0 0
3287 220 1 0.3131936310032988 6.5193327560619645 -7.801454606129317 -19.092051110599307 0 0 0
3288 220 1 0.2546175459926504 5.720951493896844 -7.393828488138216 -20.57284402995351 0 0 0
3289 220 3 -0.7098136347178093 7.502924869367645 -5.812569545303982 -21.636125334846376 0 0 0
3355 224 2 0.5835675212803723 5.010175487071464 -9.211771015840917 -16.881828955386784 0 0 0
3356 224 4 -0.5436077057359222 5.99612979569452 -8.786083050812403 -17.42461900026103 0 0 0
3240 217 2 0.106599007238088 13.551376544311223 -3.7295280271951983 -17.886275451490874 0 0 0
3241 217 1 0.1250956106625718 12.681065337009569 -4.284759408895693 -18.261446922820397 0 0 0
3242 217 2 -0.1777562730463801 14.949909156376451 -4.273367646494024 -18.317438021314032 0 0 0
3243 217 1 0.08415085998463612 15.113800861296268 -5.247433997299303 -17.829005916704695 0 0 0
3245 217 2 0.6699756856246151 14.92262670671892 -4.424122256895582 -19.9429241692652 0 0 0
3247 217 4 -0.4624998831582469 13.899440603244313 -4.844461427697419 -20.495762615477087 0 0 0
3248 217 2 0.564919086569412 13.488713420174484 -3.7546913223112908 -16.270454609279028 0 0 0
3249 217 4 -0.5659254294416087 13.051939376373701 -4.7696847283135035 -15.797615006722229 0 0 0
3270 220 3 -0.5984827287943755 9.535766541209787 -3.3396854363382027 -15.78570692817737 0 0 0
3271 220 1 0.3167804037233651 10.286675066092144 -3.116756423431945 -16.455409880993518 0 0 0
3275 220 1 0.09706540120150357 10.370232868691629 -5.376247695511825 -17.12513982007652 0 0 0
3282 220 1 0.07823660139253133 10.1147914992308 -7.641317133980313 -18.675737543804363 0 0 0
3284 220 1 0.228652798729851 9.482573073035608 -5.830286485989241 -20.09579817584166 0 0 0
3244 217 1 0.08514632307152868 15.79619815981513 -3.60877597106535 -18.059645173151576 0 0 0
3246 217 4 -0.4527726848055205 15.961932812453444 -4.141361590824184 -20.550261365865243 0 0 0
1928 133 2 -0.07174588064382978 -19.126753916761192 -1.049824564994225 -16.628504764329158 0 0 0