LAMMPS data file via write_data, version 2 Aug 2023, timestep = 20, units = real

5063 atoms
5 atom types

-51.45 51.45 xlo xhi
-51.45 51.45 ylo yhi
-51.45 51.45 zlo zhi

Masses

1 1.00794
2 12.0107
3 14.0067
4 15.9994
5 32.065

Atoms # full

4222 280 1 0.08579924547627771 -8.024377357535645 -3.9242903195740584 -21.54382997214178 0 0 0
4220 280 2 0.07725752927827675 -7.506705677678373 -2.9497568866740957 -21.328528885341804 0 0 0
4221 280 1 0.07898419874156788 -8.251071507895878 -2.174361654052478 -21.663372606034116 0 0 0
4223 280 4 -0.5420336336762781 -6.31454520332832 -2.774367501007129 -22.117405605732653 0 0 0
4224 280 1 0.3614954550826764 -5.87953450174754 -2.030393413717543 -21.632806166725626 0 0 0
835 51 2 0.541306436300354 -16.06109479929249 7.855705155205179 -21.263429683051946 0 0 0
837 52 3 -0.5366648209803329 -16.298531275545063 9.16292603503436 -21.493598954199772 0 0 0
809 50 2 0.5526715370209363 -9.752966388252528 8.46608010610729 -21.75869928589373 0 0 0
810 50 4 -0.4485744160484161 -9.983926492102059 7.869289271045186 -22.76919037133601 0 0 0
814 50 2 0.5657713106884344 -12.957789258445002 8.901100726698377 -22.39337108167689 0 0 0
815 50 4 -0.4653763895716053 -13.200842906030475 8.526331500373505 -23.51407127260086 0 0 0
816 51 3 -0.6235284557417726 -13.616126810345758 8.509361636642911 -21.29339497356595 0 0 0
818 51 2 0.1148351315964195 -14.513494308128596 7.4014619004145 -21.37019561312634 0 0 0
819 51 1 0.1284699146703315 -14.335797321037923 6.949988363787499 -22.37098056277644 0 0 0
828 51 2 0.2717108108769531 -10.9344619471505 4.40074578551773 -22.251489271149378 0 0 0
829 51 4 -0.5379099145280896 -9.90615671436415 3.8586436960690844 -23.04308668658418 0 0 0
830 51 1 0.2892069089517068 -10.406983156497928 3.391046611750062 -23.748567885142148 0 0 0
831 51 2 -0.08962869042077148 -13.329369186119685 4.733073162170509 -21.78871888648024 0 0 0
832 51 1 0.08610744494111894 -14.383557288715625 4.542547102685284 -22.048580736768773 0 0 0
833 51 2 -0.09229350589860361 -12.306572755849235 4.225683990207332 -22.59906284447254 0 0 0
834 51 1 0.07916984382315623 -12.574246796068698 3.7008530093065963 -23.531498903786634 0 0 0
853 53 2 -0.1426928497102716 -21.2760544805584 11.841705563680113 -21.96114662331011 0 0 0
855 53 1 0.06496952350022749 -22.006744677615323 11.984034519843224 -22.789459227861645 0 0 0
771 47 2 0.2972518936769039 -17.841730713723738 14.913112096763571 -21.427915494784646 0 0 0
772 47 1 0.04665737681629943 -17.98726161409717 14.57401036303455 -22.47026125149954 0 0 0
838 52 1 0.2513877519578134 -15.40764182625937 9.62115289990849 -21.678231822232704 0 0 0
839 52 2 0.05711061841237011 -17.598064274740217 9.733295797251872 -21.85151654656158 0 0 0
840 52 1 0.1042426695746729 -17.27937612993744 10.754083509731373 -22.169787631467653 0 0 0
841 52 1 0.07914392949861464 -17.97111467732098 9.170340345385329 -22.736038192055364 0 0 0
845 53 2 0.0116929095597671 -20.241478714480206 10.675634753854988 -22.253659364225058 0 0 0
846 53 1 0.04616449501019915 -19.36351846994118 10.944655842649768 -22.888837673886844 0 0 0
847 53 1 0.09980223700280155 -20.72161458839129 9.76289735207808 -22.673412274791126 0 0 0
854 53 1 0.09163972808907578 -20.7601088020809 12.819857327495551 -21.828574501774295 0 0 0
793 49 2 0.08807243098269521 -14.083603212621249 12.928100779472144 -22.052211408560698 0 0 0
794 49 1 0.09129003825537993 -15.053986122256578 12.611357129123018 -22.485654070237 0 0 0
795 49 2 0.09056220217160993 -13.843390009492412 14.47923709618958 -22.37164335886271 0 0 0
796 49 1 0.09682713632346539 -14.834115774795324 14.976053605598846 -22.208250548086596 0 0 0
797 49 1 0.06686744293018233 -13.597337853981294 14.578844201139619 -23.449491916445805 0 0 0
799 49 1 0.2970833459451018 -12.083383869000238 15.09294478507793 -21.972204460532495 0 0 0
800 49 2 0.5418965428277235 -12.919561327191056 11.989953146192217 -22.57749359401263 0 0 0
801 49 4 -0.4990099056110152 -12.710535642787638 11.98511386471235 -23.746454509283254 0 0 0
802 50 3 -0.5903966239013789 -12.220684756633098 11.238768612784684 -21.680699111269934 0 0 0
804 50 2 0.1153936285248065 -11.746856517300621 9.960263834705419 -22.198298755392916 0 0 0
805 50 1 0.1649445873395537 -11.284747690546636 10.222271507264352 -23.17672766160588 0 0 0
774 47 1 0.211559305984011 -16.240550050675175 16.233468489262513 -21.563097876842875 0 0 0
798 49 4 -0.5309168655446939 -12.921635332319676 15.159689633886146 -21.499101608963283 0 0 0
4167 276 4 -0.4446076841789403 -15.468568261971235 -17.642072699666738 -16.08418950845238 0 0 0
4160 276 1 0.08871828324225864 -12.237006362036784 -15.284054839718056 -17.24354227007179 0 0 0
4162 276 2 -0.1663145727170575 -13.317859958341721 -16.455202562811568 -15.786909577838212 0 0 0
4164 276 1 0.0875636859783905 -12.893188553188363 -17.31267476675503 -16.359687849929863 0 0 0
4165 276 2 0.6576368035338811 -14.855654845805628 -16.84021035604855 -15.371885611025904 0 0 0
4176 277 2 -0.2167946900747438 -15.17374744860735 -10.10310327142993 -18.709953071375626 0 0 0
4177 277 1 0.07624095161694619 -16.228061026212192 -9.739510976096193 -18.71605545165155 0 0 0
4179 277 1 0.0849134927226481 -15.190969750940182 -11.215653310066713 -18.646380126178627 0 0 0
4182 277 1 0.08919787345045123 -15.169476515972534 -10.35275972277847 -15.665962111032842 0 0 0
4186 277 1 0.07638153739330689 -17.164982180673867 -9.31281092412034 -16.880833398403293 0 0 0
4157 276 2 0.1145671790218511 -12.973259030450489 -13.869758643764003 -15.730812320811046 0 0 0
4158 276 1 0.1351236209452096 -12.176746528818581 -14.09236890973077 -14.996757635345228 0 0 0
4159 276 2 -0.1699849896100764 -13.161498025325768 -15.160430766083108 -16.625636725427107 0 0 0
4161 276 1 0.09041015422070278 -14.005069682727866 -15.055260785467851 -17.3502686403662 0 0 0
4168 276 2 0.565725776775334 -12.588786816624706 -12.578417234528217 -16.57520199525075 0 0 0
4169 276 4 -0.5053409918020653 -11.531357002052548 -12.62535799397112 -17.151532178371117 0 0 0
4170 277 3 -0.5407524577915419 -13.432908177670841 -11.534461780929885 -16.703083668779083 0 0 0
4171 277 1 0.2373314937066747 -14.319113638122628 -11.574302097461736 -16.202702562246014 0 0 0
4172 277 2 0.1092796448270096 -13.013683488439002 -10.333635846958757 -17.4250144568022 0 0 0
4173 277 1 0.09398267863915911 -12.567547954775236 -10.672416959834862 -18.384673474319932 0 0 0
4174 277 2 -0.08596810398595889 -14.320906054959831 -9.457810964477778 -17.561856127656913 0 0 0
4178 277 1 0.07728170811713907 -14.749814733854555 -9.854136178748483 -19.71039206441245 0 0 0
4180 277 2 -0.1190794215199932 -15.042860150213835 -9.358980957841927 -16.16739106595678 0 0 0
4187 277 2 0.5707160987999143 -11.873918074400462 -9.464793649383264 -16.71599373862063 0 0 0
4188 277 4 -0.471680920255424 -11.767822922387067 -9.334574350306942 -15.525393051404096 0 0 0
4196 278 1 0.1100767893452987 -9.382023018672228 -10.359154436995734 -18.660454843993186 0 0 0
4195 278 2 -0.1779201231372216 -8.654163034870503 -9.828667873480743 -18.00104252865362 0 0 0
4197 278 1 0.07212569197610438 -7.634445346465719 -10.17713640015139 -18.280263245371632 0 0 0
4198 278 1 0.1125642551746214 -8.854792421175564 -10.167329985167772 -16.95649003797801 0 0 0
4183 277 2 -0.2215950929241158 -16.438343355909826 -8.6619367665839 -16.33988619526054 0 0 0
4184 277 1 0.08845793358210507 -16.890800904856153 -8.419309205401662 -15.353418740629458 0 0 0
4185 277 1 0.08457275876142874 -16.34761875910453 -7.707178134584504 -16.90863420976122 0 0 0
4175 277 1 0.09979684129980057 -14.065963317666188 -8.421978231545316 -17.879188766545976 0 0 0
4181 277 1 0.1214095867781588 -14.401497185352431 -8.763859316049844 -15.477889105522511 0 0 0
4189 278 3 -0.5746331746885949 -11.131837493712428 -8.840263519219143 -17.6466023569361 0 0 0
4190 278 1 0.2333224793113604 -11.376783321696912 -8.87647223638651 -18.631399398741014 0 0 0
4191 278 2 0.1063327189221221 -10.10119451209121 -7.930053499298454 -17.2740158574201 0 0 0
4192 278 1 0.1011214952937636 -9.956749633016653 -7.992825208325008 -16.163619397151653 0 0 0
4202 278 1 0.09770434313628124 -9.948851286055268 -7.864076772222569 -20.007924026839387 0 0 0
4203 278 2 0.5377523002854996 -10.611845564027893 -6.495558074701458 -17.78072465489131 0 0 0
4204 278 4 -0.5034957768534628 -11.525456175522509 -6.320277620770806 -18.556925753963373 0 0 0
4205 279 3 -0.6173991117631669 -9.849429908340841 -5.523198758232573 -17.191703857029445 0 0 0
4207 279 2 0.1073871923311051 -9.94773484622369 -4.224426926617573 -17.8046565392203 0 0 0
4208 279 1 0.1187430795405614 -10.558639240940238 -4.332857389439831 -18.737825831625283 0 0 0
4209 279 2 0.1157239970992124 -10.584441898971782 -3.261302525088358 -16.71519312585783 0 0 0
4210 279 1 0.1063113560765054 -9.92305137177157 -3.1939109162401986 -15.809894511118296 0 0 0
4211 279 1 0.1130603553188132 -11.553055162600348 -3.70151791671296 -16.357178081405042 0 0 0
4193 278 2 -0.103229174723059 -8.802889208970361 -8.279458150222222 -18.13376179343717 0 0 0
4194 278 1 0.06658197538982787 -7.920952241961788 -7.742119895612221 -17.71435692457802 0 0 0
4199 278 2 -0.2084312750601021 -8.893187472503598 -7.985495834707338 -19.667278803461215 0 0 0
4200 278 1 0.07879318719123116 -8.357164258438571 -7.0511514523809735 -19.948450305335598 0 0 0
4201 278 1 0.07563873153865616 -8.438875119596911 -8.80624803288881 -20.270372064875957 0 0 0
4206 279 1 0.2341841892283985 -9.013410734729467 -5.799755996722037 -16.694292254907065 0 0 0
4214 279 2 0.5546628972404929 -8.425272600150551 -3.7697384712864115 -18.028098840117508 0 0 0
4215 279 4 -0.5198762383911536 -7.502328184122964 -4.059818386051823 -17.319025836510654 0 0 0
4219 280 1 0.1210992589994506 -6.488090276802979 -3.5889286166140946 -19.404618755479746 0 0 0
4263 283 1 0.1180946073773052 -6.299484919742423 -5.6888566405644125 -15.240008375636354 0 0 0
4274 283 1 0.06392748355194447 -7.574265478634875 -7.806145358898387 -15.438121853988521 0 0 0
292 18 1 0.3656793377829505 -10.867880439617753 1.0849945195758592 -15.73781856410707 0 0 0
4212 279 4 -0.5637927416203701 -10.800077286408058 -1.9458052169719342 -17.264200284596377 0 0 0
4213 279 1 0.3381448621581363 -10.170668852447305 -1.4234613769617834 -16.741954536003593 0 0 0
4217 280 1 0.2283764729926794 -9.32553372200109 -2.7686047475739874 -19.571246638745123 0 0 0
4236 281 4 -0.5408303823865231 -10.001931258876025 1.8356571967110866 -16.98254722041503 0 0 0
4216 280 3 -0.6328166620725694 -8.43866388085623 -3.001116219059441 -19.133636749083006 0 0 0
4218 280 2 0.0966438846644555 -7.172734433104955 -2.792571439736389 -19.79183369074293 0 0 0
4225 280 2 0.5536919464592084 -6.650191008880827 -1.3211109220387298 -19.463569751368638 0 0 0
4226 280 4 -0.5197493363369784 -5.646397187357169 -0.9926606594396273 -20.066499214550078 0 0 0
4227 281 3 -0.5800883327422129 -7.361618223681441 -0.499994989119157 -18.67777525641661 0 0 0
4228 281 1 0.2767474630473911 -8.209338665610797 -0.8377498027361194 -18.223429634105855 0 0 0
4229 281 2 0.09745333542244641 -6.598950813893318 0.6511050798481708 -18.184183608998147 0 0 0
4230 281 1 0.1419773160878902 -5.983991572192022 0.9547514154822182 -19.06648467915921 0 0 0
4231 281 2 -0.1741596641229052 -7.696150531244306 1.6977989910786722 -17.838182102572745 0 0 0
4232 281 1 0.09372529501454155 -8.086854206096142 2.0847852148353554 -18.80448964392672 0 0 0
4233 281 1 0.06263866850933306 -7.232657984941527 2.5958953204002597 -17.377117849619758 0 0 0
4234 281 2 0.6454186618318191 -8.928538672798068 1.1777804693700806 -16.941354706073003 0 0 0
4235 281 4 -0.6033594675432968 -8.729618919152053 0.2274448654586536 -16.129842459310705 0 0 0
4237 281 2 0.5622230848239648 -5.602182099167662 0.14051663433073075 -17.020170906513712 0 0 0
4238 281 4 -0.4913682621894375 -4.4534521843670385 0.4428008677115495 -17.06493205299472 0 0 0
4239 282 3 -0.5616633308012464 -6.159641236693648 -0.572207339224496 -16.003331998941547 0 0 0
4240 282 1 0.3347325782167407 -7.2084291878306 -0.694299748010923 -16.020192517898046 0 0 0
4242 282 1 0.1003863956632581 -4.416462528705547 -1.6409560905942229 -15.498446096718963 0 0 0
891 55 4 -0.4825538270813448 -27.20366305161712 7.025268824334159 -16.18541361217889 0 0 0
857 53 4 -0.4649461500972485 -21.462400469062327 8.292609954573853 -19.673646952143056 0 0 0
860 54 2 0.1173056424468107 -21.770850416012824 8.331878741668094 -16.892290558599992 0 0 0
861 54 1 0.1095516080540566 -21.206862512858482 7.471822662083384 -17.289905219482065 0 0 0
862 54 2 -0.1443701491663322 -21.397602447563724 8.691044599143934 -15.38434814392451 0 0 0
876 54 2 0.5429159259794587 -23.32217472751109 7.9954889951045365 -17.132065656725047 0 0 0
877 54 4 -0.453213403913715 -24.076889367781153 8.860516498549833 -17.50361311863545 0 0 0
878 55 3 -0.466000461329925 -23.67981494692124 6.737490441884862 -16.85896552984217 0 0 0
879 55 2 0.005362185864699623 -22.746315950953147 5.616348054183772 -16.813628118876238 0 0 0
880 55 1 0.09905268570544205 -22.503771150762322 5.372704118100964 -17.874875202685207 0 0 0
881 55 1 0.05580484014975721 -21.794040730921093 5.8857552514068265 -16.3012572435864 0 0 0
882 55 2 0.1029056045321866 -25.061247743094075 6.329975406489115 -16.95716753888135 0 0 0
883 55 1 0.1331357185434329 -25.35632345626587 6.702823746161583 -17.95910205882812 0 0 0
884 55 2 -0.1540297289687403 -24.996625961914337 4.756056686231275 -16.83881558976191 0 0 0
885 55 1 0.07955894627658266 -24.977012723009942 4.270688451958472 -17.844156059492285 0 0 0
886 55 1 0.08183757755895057 -25.878235217732733 4.314221038619948 -16.320398424545903 0 0 0
887 55 2 -0.1543750068633571 -23.650722419970858 4.550204968591661 -16.068674496767983 0 0 0
888 55 1 0.06259967689850961 -23.264711932531544 3.5046265131731156 -16.0959519951479 0 0 0
890 55 2 0.5563706469046027 -26.051450198550103 6.972774681771719 -15.84218021104954 0 0 0
836 51 4 -0.4645286160456894 -16.891204184905327 7.009690527458875 -21.049733963993674 0 0 0
865 54 2 0.002190444669850732 -19.88518399139866 8.41421245004667 -15.236170942311128 0 0 0
870 54 2 -0.06641441288009353 -17.093653925791056 8.062867475300072 -15.287131827129825 0 0 0
871 54 1 0.08584472869832652 -16.002238422349016 7.91934541848396 -15.350955361086434 0 0 0
208 14 2 0.6556819400734705 -12.647044630466935 8.02872183614038 -15.19524207238829 0 0 0
209 14 3 -0.6699052814433396 -12.557105205243884 7.425519425745367 -16.468459205028722 0 0 0
210 14 1 0.2230848032650644 -12.758884619597733 6.420763395997866 -16.57499528243099 0 0 0
211 14 1 0.3134430904436255 -12.751435439075939 7.916783799922242 -17.380558441553227 0 0 0
807 50 1 0.1084592281772238 -11.21925446444238 9.070524170623218 -20.210950837860885 0 0 0
817 51 1 0.2590773853303359 -13.339839847962136 8.95434573520451 -20.42874241576802 0 0 0
820 51 2 -0.1426659775660563 -14.165783192517894 6.424323650524139 -20.153286845752206 0 0 0
821 51 1 0.1062314258610867 -15.068603914092071 5.805925322474519 -19.930279720488283 0 0 0
822 51 1 0.09038619267295361 -13.898684254013245 6.968366888587979 -19.21361087638106 0 0 0
823 51 2 -0.01241053095451984 -13.001143062566225 5.564527150827091 -20.669379914238707 0 0 0
824 51 2 -0.07736136199018274 -11.635426206913657 5.670381334004917 -20.244412583583703 0 0 0
825 51 1 0.09132865726117802 -11.361586033474591 6.219310239490864 -19.326085114644716 0 0 0
826 51 2 -0.03755208200361419 -10.635781025812694 5.109116339236298 -21.047634732767353 0 0 0
827 51 1 0.1120390270479311 -9.576270880748291 5.242493677514129 -20.765334581912022 0 0 0
811 50 3 -0.6607886196045549 -8.741129295100677 8.135479868128147 -20.911801058651356 0 0 0
812 50 1 0.2587594302860184 -8.074718775951077 7.3887308544746775 -21.121313049925465 0 0 0
813 50 1 0.2214050495532318 -8.279320422783279 8.74863924103134 -20.231166179683818 0 0 0
3568 236 2 -0.154952789417192 2.2177016010876263 7.875166215625454 -15.511174590787506 0 0 0
3569 236 1 0.06366391691028672 2.6694024414747877 8.726733049056863 -16.063502570027513 0 0 0
3570 236 1 0.07614095930534061 2.466768037588743 6.951046429692027 -16.083393640449867 0 0 0
3571 236 2 0.02873697286205023 0.6793717632016986 8.094765307104316 -15.452504436276104 0 0 0
3572 236 1 0.07126220001966221 0.2111212682369242 8.252048819038546 -16.444578723101866 0 0 0
3575 236 1 0.2156703774946108 0.40317787494527907 5.8399907057903535 -15.269426191079774 0 0 0
3577 236 1 0.2420973684461879 -0.9738108912276869 6.674047801410938 -15.171568605922541 0 0 0
3555 235 1 0.07178021216730897 8.550602163393256 5.574123550871935 -15.629066669513449 0 0 0
3564 236 1 0.07148076352112048 4.736891537064428 8.067873763112749 -15.206875069589309 0 0 0
747 46 2 -0.1703445387564553 -23.191697447660342 15.0332295393561 -15.548821789849661 0 0 0
748 46 1 0.1024902800610432 -22.78514537226398 15.031332435916378 -16.585847084344472 0 0 0
750 46 2 -0.1274556055951638 -24.321024928719112 13.94422812229903 -15.36236026703479 0 0 0
751 46 1 0.1096258207066268 -23.90339561898361 12.910905760117075 -15.396072842728161 0 0 0
753 46 2 0.01921620156978222 -25.439368268347884 14.136024595483313 -16.41853979891554 0 0 0
754 46 1 0.08357225712390665 -25.12507950077018 14.089433501919094 -17.47951759880819 0 0 0
755 46 1 0.08168842957200467 -26.12134062451003 14.995669842325336 -16.24955373638271 0 0 0
756 46 3 -0.672810783453478 -26.34913326097235 12.875536207649002 -16.23694856012155 0 0 0
757 46 1 0.2813874742654944 -25.946523831535814 11.927257501167901 -15.955748710372083 0 0 0
758 46 1 0.2166740313336682 -27.128279704121756 12.951034689430072 -15.523037523829258 0 0 0
759 46 1 0.2234962421732588 -26.931818948693902 12.589256412702818 -17.0756680784187 0 0 0
761 46 4 -0.5450618051751327 -21.22932633860075 13.050650290317568 -16.91173795775815 0 0 0
850 53 2 -0.1228324125312334 -21.908634476541682 11.326044919999356 -20.626731438088363 0 0 0
851 53 1 0.08719335720592936 -22.352240079529967 12.162657209797734 -20.037468859327593 0 0 0
852 53 1 0.1050263564492715 -22.749698598533783 10.614367399750188 -20.813421556463922 0 0 0
858 54 3 -0.5668243837780705 -21.35463882061399 9.441564932524786 -17.719484764580507 0 0 0
760 46 2 0.535718903677897 -20.53243533709819 13.340421459440755 -15.974099081259855 0 0 0
762 47 3 -0.5707884135912777 -19.204749757847754 13.559613460767626 -16.034975367223804 0 0 0
763 47 1 0.3591438320962944 -18.653658356613935 13.99072294881044 -15.269269170248265 0 0 0
764 47 2 0.1006295139405168 -18.63399209948136 13.513107589834123 -17.390910757962555 0 0 0
765 47 1 0.1038294966724808 -19.215046396360048 12.789057070388266 -18.000514145239965 0 0 0
766 47 2 -0.1519833167077055 -18.861281048234908 14.988643761126346 -17.92955196764204 0 0 0
768 47 1 0.1004092976416145 -19.961204545565202 15.151379516304813 -18.034049839523774 0 0 0
769 47 3 -0.3419531442009082 -18.612017973231204 14.497469446069871 -20.39209342825335 0 0 0
777 47 2 0.5454117252868746 -17.09210527988772 13.12253409250218 -17.22275658621374 0 0 0
778 47 4 -0.4899320709185627 -16.359963857116153 13.54683416666156 -16.3859099938755 0 0 0
779 48 3 -0.5791275475909367 -16.778058907793415 12.197511126074444 -18.176037574083953 0 0 0
780 48 1 0.2802190802929885 -17.451676248118893 12.042145841940194 -18.931234000105928 0 0 0
781 48 2 0.1036654188947895 -15.357287139871719 12.203641954659728 -18.55417658881426 0 0 0
784 48 1 0.1110998693304453 -15.483967522403999 10.00064992807181 -18.296057217063346 0 0 0
789 48 2 0.5514146903312181 -15.437102906009558 12.405954141052042 -20.13248838701356 0 0 0
790 48 4 -0.5457944066013419 -16.464498069689608 12.239957237787737 -20.753471193342804 0 0 0
842 52 2 0.5644283892466517 -18.62624563265856 9.755249529099045 -20.630287401235265 0 0 0
843 52 4 -0.4609274328074998 -18.29076610395997 9.394039438326468 -19.5309928043294 0 0 0
844 53 3 -0.4409251926519109 -19.817013307668983 10.295138521602617 -20.910948785606212 0 0 0
848 53 2 0.1013629597004041 -20.736429448286664 10.61588582208108 -19.83994852923994 0 0 0
849 53 1 0.09069329550331473 -20.18016174393319 11.298543558011913 -19.16001097073803 0 0 0
856 53 2 0.5958680783815361 -21.195778721753758 9.286316286382496 -19.04698716560442 0 0 0
859 54 1 0.2478643467669356 -21.09037579832828 10.334440900621821 -17.33762634209135 0 0 0
866 54 2 -0.03196593259776143 -19.04054361377047 9.53853793436425 -15.468639941365952 0 0 0
867 54 1 0.1070195142088528 -19.475710585617342 10.54348722353751 -15.575259252507788 0 0 0
868 54 2 -0.03949134032453491 -17.649874727861633 9.333753187090878 -15.582165652312883 0 0 0
869 54 1 0.1135779777095285 -16.99950895645478 10.172962056057406 -15.884912899754086 0 0 0
212 14 3 -0.6941178301627045 -12.835139087861698 9.376711397495404 -15.08988450297182 0 0 0
214 14 1 0.2992509936824388 -12.857762116479634 9.732083008814191 -16.044184168185428 0 0 0
782 48 1 0.1257405983637704 -14.88621955646517 13.070482528799491 -18.03825769934068 0 0 0
783 48 2 -0.1557180519357264 -14.826674444025128 10.842696883038867 -17.989906373317126 0 0 0
785 48 1 0.09797447881155803 -14.887062643798272 10.842310758273076 -16.87732677109137 0 0 0
786 48 2 0.5887191765386552 -13.328669340641955 10.5671450758492 -18.440999538257522 0 0 0
787 48 4 -0.5583285246352763 -12.709998299545735 11.57528611794891 -18.97314704884039 0 0 0
788 48 4 -0.5828651557012754 -12.826235929625334 9.42619135215638 -18.264229154348044 0 0 0
791 49 3 -0.5809375072418018 -14.256871086203843 12.827584918923591 -20.614701977368263 0 0 0
792 49 1 0.3102144714358234 -13.476024783855918 12.973340166515676 -19.942489265300484 0 0 0
803 50 1 0.319783819479071 -12.363420439963845 11.35974580679957 -20.661826460739686 0 0 0
806 50 2 -0.1668273514754642 -10.724498540370746 9.521235088729082 -21.102920178552875 0 0 0
808 50 1 0.09634683056485871 -10.16039722593051 10.385664112154002 -20.67769030428713 0 0 0
749 46 1 0.07792083957526445 -23.636653348808863 16.04407492112034 -15.407697623796546 0 0 0
696 43 2 -0.1050644132464112 -17.46100811971411 18.80028856434243 -16.393237795946565 0 0 0
697 43 1 0.07255573076452644 -18.513702207361078 19.030665922367785 -16.63601275725486 0 0 0
698 43 2 -0.07706077428452426 -16.472921565707992 18.798085854761755 -17.390412517268075 0 0 0
699 43 1 0.1013007900461777 -16.744773695672546 19.042384068537128 -18.42629235072172 0 0 0
767 47 1 0.09693852276797454 -18.514330593464962 15.746868870941766 -17.197252104260045 0 0 0
770 47 2 0.1225631246945772 -18.110132007068223 15.099198220064425 -19.257389883063873 0 0 0
773 47 3 -0.5176437061598417 -16.91636592214109 15.731176994543379 -20.91902123772168 0 0 0
775 47 2 0.1597135624837152 -17.00351560807773 15.854499561980957 -19.660988852432173 0 0 0
776 47 1 0.09486564656150528 -16.313393166614222 16.472341370217684 -19.024276895410537 0 0 0
691 43 2 -0.1042049727620492 -14.729785187425229 18.198446221932784 -15.74475210657859 0 0 0
692 43 1 0.07545497683331329 -13.685753120877177 17.94462312150188 -15.496771142116103 0 0 0
693 43 2 0.2443365723525694 -15.103195805197208 18.524319395590645 -17.080897895599218 0 0 0
694 43 4 -0.5413881570337684 -14.153918614960451 18.60142980238748 -18.121610844770608 0 0 0
695 43 1 0.2893515204453952 -13.333498393616036 18.885860042239447 -17.668888479193093 0 0 0
4166 276 4 -0.477757162476948 -15.367234880376918 -16.291617365921155 -14.363114378607374 0 0 0
4137 274 4 -0.4171588709545536 -13.916796311381937 -17.323497293064335 -9.935311846517813 0 0 0
4139 274 4 -0.4521919983492838 -13.154804754184111 -15.12219517622113 -11.836593684353204 0 0 0
4163 276 1 0.1153763076818121 -12.689633873900837 -16.39064671738191 -14.870394949977724 0 0 0
4436 295 1 0.2671594130641144 9.613385273590831 -15.877116928616648 -9.729142383277825 0 0 0
4143 275 1 0.1217885411296495 -15.674146154682964 -14.267473969698615 -12.714383842315828 0 0 0
4144 275 2 -0.1460003366341359 -15.989199659304958 -12.040614089048097 -12.539527642758689 0 0 0
4145 275 1 0.078025930120104 -16.46886455189861 -11.870788525574477 -13.52021338139911 0 0 0
4146 275 1 0.1325401172788956 -15.371973846348768 -11.141347496083137 -12.340292679508757 0 0 0
4147 275 2 -0.1705678708707975 -17.095079930461726 -12.175039443596251 -11.452908453117725 0 0 0
4148 275 1 0.07515801170917591 -16.675179092247507 -12.456249586040308 -10.465083486051467 0 0 0
4149 275 1 0.09078493531166473 -17.81642130032751 -12.972517109971028 -11.713700565133554 0 0 0
4150 275 2 0.6175584187168216 -17.795555286512897 -10.699457582055308 -11.407294752059226 0 0 0
4151 275 4 -0.5342382913670807 -18.88985218269449 -10.499568796542748 -12.002295860516593 0 0 0
4152 275 4 -0.5028050860862953 -17.120784717936118 -9.791176755177151 -10.909682542996272 0 0 0
4118 273 2 0.1633370482810118 -11.27073430339005 -9.879977202282301 -9.153673215604881 0 0 0
4119 273 1 0.0834293771683623 -12.006676677623533 -9.998612653951925 -9.99391143807241 0 0 0
4120 273 4 -0.5362453231705554 -9.98598972081608 -9.643261430115869 -9.75376814467019 0 0 0
4121 273 1 0.3249809539183891 -10.092892736178266 -10.002370259695912 -10.651930939378351 0 0 0
4126 273 2 0.5419914675144565 -11.586947867201058 -12.525695466779544 -9.119924215305756 0 0 0
4127 273 4 -0.4582156343448807 -10.879031947769532 -12.768918892744216 -10.058315307234858 0 0 0
4130 274 2 0.1009907732523645 -13.02565277192294 -14.514374297486745 -9.491715786707088 0 0 0
4131 274 1 0.1301846684998955 -12.060692985245774 -15.058832763384087 -9.451600977086144 0 0 0
4138 274 2 0.5883690579988216 -13.532565672803617 -14.321196455667636 -11.007727591557146 0 0 0
4140 275 3 -0.563847749985468 -14.460568494952321 -13.385357786073255 -11.252282537353077 0 0 0
4141 275 1 0.2322204255103607 -14.66211733823449 -12.775478047488939 -10.463941080185464 0 0 0
4142 275 2 0.09887761889951927 -15.070648739432746 -13.341041459169835 -12.594987854899646 0 0 0
4153 275 2 0.573114877301459 -13.930154886122834 -13.147610768220021 -13.682580096525983 0 0 0
4154 275 4 -0.4547923093468241 -13.078719165077489 -12.342100173736457 -13.515790730276725 0 0 0
4155 276 3 -0.6022347460153347 -14.18788155789956 -13.736007256152018 -14.914764077568192 0 0 0
4156 276 1 0.2849376743925618 -14.79843206614953 -14.556084997908634 -14.858489664861006 0 0 0
4338 288 4 -0.4991345629567462 2.3160077771993217 -9.496841067400013 -12.9004148501472 0 0 0
4339 289 3 -0.6001512994073345 1.3794398506612693 -9.545694360168552 -10.819300824293418 0 0 0
4341 289 2 0.1138900321535292 1.5804356600166898 -10.950076744589849 -10.518278372146451 0 0 0
4342 289 1 0.1073414168162423 1.313233695554825 -11.514265672033966 -11.441028890260108 0 0 0
4348 289 2 0.5291784347585411 0.7251015854744478 -11.345493290374705 -9.205175533995295 0 0 0
4351 290 1 0.2905747989140897 1.5576092065448408 -13.107317779335345 -9.262157127622856 0 0 0
4361 290 1 0.1031868253858179 -1.7528013312906816 -13.363197008059965 -9.413878193181933 0 0 0
4343 289 2 0.0909743557206695 3.1215645960341476 -11.021321135664078 -10.227549600778955 0 0 0
4344 289 1 0.08083614290410324 3.3410494227620564 -10.424629903357028 -9.302073891422785 0 0 0
4345 289 1 0.09601167661660305 3.6987481319082813 -10.505459204591311 -11.038306806174875 0 0 0
4346 289 4 -0.5675597514791723 3.5396024840200875 -12.41392061494178 -10.056112327140957 0 0 0
4347 289 1 0.2933527217029905 4.410384872932984 -12.401615996624864 -10.46165490274869 0 0 0
356 21 4 -0.5502933885097046 -18.10450998358934 -3.1392901532810757 -9.200568947610167 0 0 0
359 22 2 0.1007428909027135 -15.339559449931892 -3.4223596741494164 -9.84855121302874 0 0 0
360 22 1 0.09586276257118784 -15.71217752626394 -3.6274790792197553 -10.883524781653088 0 0 0
371 22 4 -0.5292648585858658 -15.706523724924553 -5.765736470747858 -9.410784270633268 0 0 0
399 24 1 0.1420871583478938 -18.31547480386713 -5.519492115177231 -8.973664470736557 0 0 0
401 24 2 0.04322974757495898 -18.79378864974722 -6.847710466193887 -10.583032121497512 0 0 0
402 24 1 0.1364617630604504 -17.768473094130115 -6.902262639185536 -11.003940320394712 0 0 0
403 24 1 0.0796215466419142 -19.407022655106058 -6.158137919233872 -11.196698591102036 0 0 0
404 24 3 -0.6560407994935997 -19.381069983712713 -8.240126824059331 -10.95807473884071 0 0 0
405 24 1 0.2631349058407023 -19.273126429518992 -8.983496143023492 -10.205500482216106 0 0 0
406 24 1 0.2128585505765671 -20.43342822562233 -8.289272206642904 -11.100796997002801 0 0 0
407 24 1 0.3240252279313098 -19.024040189845202 -8.81165740559227 -11.837931802988168 0 0 0
364 22 2 -0.1864737121871709 -12.816664991013472 -4.132659627112116 -10.02074161358712 0 0 0
365 22 1 0.08941195470220288 -13.110798174740381 -4.8195797533091085 -10.84740395025893 0 0 0
367 22 2 0.6307242012083001 -11.368279190978916 -3.4042244879539028 -10.319392294748877 0 0 0
368 22 4 -0.5918717797717629 -10.464524924925078 -3.5449638341036014 -9.437724538511144 0 0 0
4258 283 3 -0.5770337867542699 -5.664708005939021 -3.4662342981139562 -13.987182945999258 0 0 0
4259 283 1 0.218594081818972 -4.639509168304598 -3.432390724065177 -14.033599774819248 0 0 0
4260 283 2 0.1068218595429011 -6.361850693247897 -4.528535896983507 -13.326861165625202 0 0 0
4261 283 1 0.1136317161375982 -7.4417979646260415 -4.259010597352792 -13.418036570566718 0 0 0
4262 283 2 -0.07090919455654823 -5.98075105706812 -5.8019585930114586 -14.173148334535396 0 0 0
4264 283 2 -0.2084413640251274 -4.4377123781262275 -6.039519616839639 -14.194339244617966 0 0 0
4265 283 1 0.07759321995511265 -3.951295937779146 -5.461634984506891 -15.014244705406353 0 0 0
4266 283 1 0.1171595980611098 -3.955870876332371 -5.729551475295287 -13.2317688449308 0 0 0
4267 283 1 0.06529350674304349 -4.164623683280873 -7.108627043418617 -14.367348785009138 0 0 0
4268 283 2 -0.1531196760404943 -6.652895969817179 -7.069256602227947 -13.531131879095367 0 0 0
4269 283 1 0.1092938908014905 -6.959235064476288 -6.8629261371585955 -12.479782555019607 0 0 0
4270 283 1 0.08667467112412086 -5.929150591075721 -7.909007561563869 -13.473079754770314 0 0 0