LAMMPS data file via write_data, version 23 Jun 2022, timestep = 21

3720 atoms
7 atom types

-42.53145 42.53145 xlo xhi
-42.53145 42.53145 ylo yhi
-42.53145 42.53145 zlo zhi

Masses

1 1.00794
2 12.0107
3 14.0067
4 15.9994
5 32.065
6 24.305
7 55.845

Atoms # full

38 3 1 0.09255129613086512 -9.252667447444118 -18.294913309361842 -18.2836452521906 0 0 0
9 1 1 0.09172545490811433 -3.3237731180361454 -18.52395080325906 -21.721700658032734 0 0 0
1 1 3 -0.6832542813321192 -1.8837558499524414 -17.017010692133777 -20.09991236756184 0 0 0
2 1 1 0.2254317034222409 -1.4372188343514738 -17.971240650395156 -19.995376459019703 0 0 0
3 1 1 0.2190675931035267 -1.2814126517935867 -16.682892951519722 -20.906793509190948 0 0 0
4 1 1 0.3395036014875293 -1.4373100387513593 -16.427931466164683 -19.21616173775396 0 0 0
5 1 2 0.09705855105002696 -3.3887473644292925 -16.773905272027427 -20.2789866654292 0 0 0
6 1 1 0.1413214319360597 -3.310749638713559 -15.675616322635438 -20.42020960288337 0 0 0
7 1 2 -0.196672629854607 -3.8114312430548525 -17.521361028168307 -21.57544265095676 0 0 0
8 1 1 0.06812739036588075 -3.5425567830650686 -16.929446935308512 -22.488457800490472 0 0 0
10 1 1 0.09309740105273166 -4.919711989434468 -17.675065574880264 -21.61852339222997 0 0 0
11 1 2 0.5533422818922317 -4.170540975422706 -17.046630163452015 -18.93052873642647 0 0 0
12 1 4 -0.4946707311172757 -4.758532837821905 -18.084678982350486 -18.787193593268512 0 0 0
766 49 2 0.6141747025845048 -1.2942194551160944 -14.2678509209855 -18.633800746108605 0 0 0
767 49 4 -0.5316714539430456 -2.1417579533331654 -14.123504707842235 -19.518437588669723 0 0 0
3214 199 1 0.2191835167262953 -14.784690659788101 -7.860268783298883 -18.484694303468032 0 0 0
765 49 1 0.08744530274367565 -0.5796744246271396 -12.12472747952455 -18.798885055587164 0 0 0
813 52 1 0.08144764617388228 -3.4535033916014948 -6.511679869900607 -18.4663977374798 0 0 0
820 52 1 0.2170114444710665 -1.988630492527552 -6.834994627883177 -20.826587290866556 0 0 0
749 48 2 0.562619783990042 4.087140479013548 -9.547053130428722 -18.521764516412148 0 0 0
750 48 4 -0.5065411824191486 4.3117732963037 -10.729847000394216 -18.47137671209929 0 0 0
751 48 3 -0.6659929887090885 4.767981699674499 -8.70601090303281 -19.338635362498643 0 0 0
752 48 1 0.258832078426955 5.457673048216384 -9.107018891725076 -19.98085861453487 0 0 0
753 48 1 0.2637781046122863 4.469364775638751 -7.739704412815803 -19.52770862589756 0 0 0
865 55 1 0.091588993095231 5.619076143492685 -6.527383088255436 -22.077016347572943 0 0 0
860 55 1 0.09697809272897977 7.483645051019814 -6.21066184373303 -19.573076927198624 0 0 0
862 55 1 0.08031491741294769 8.153497183621955 -6.719807945197408 -21.923903722512332 0 0 0
908 58 1 0.1243969723622343 8.979103598771255 -7.108624138510522 -18.358463232255797 0 0 0
920 59 2 -0.1552394070730454 12.867721903966622 -6.256235633164679 -19.396779252780476 0 0 0
923 59 2 0.5729677499139644 13.14113975408414 -7.759761844904571 -19.80104319800306 0 0 0
924 59 4 -0.4622438977701986 12.260664602197073 -8.507748365587823 -20.1316112546523 0 0 0
925 59 3 -0.6573059163839939 14.444422084627314 -8.125175854062453 -19.83849178435455 0 0 0
926 59 1 0.2220018548582715 15.282009648512535 -7.552620440611957 -19.688755205484814 0 0 0
927 59 1 0.2661464656596652 14.736498826591141 -9.041052344500974 -20.200019512695384 0 0 0
3208 199 1 0.07889191363216973 -13.538249043831508 -5.382604171669969 -18.278487091357 0 0 0
3253 202 1 0.2828327885554732 -6.313946196502424 0.011445330172557671 -19.620892156090683 0 0 0
3256 202 2 -0.1301077484344167 -6.3556545265900155 -0.38759022633604756 -22.151913925802976 0 0 0
3259 202 2 -0.1112784543553463 -7.7275456032577745 -1.1266879608154157 -21.968693621669814 0 0 0
3260 202 1 0.1451858333686358 -8.103381594434614 -1.0071181887503082 -20.923302692448672 0 0 0
3261 202 1 0.08515509289716508 -7.5719961335187325 -2.218461203558388 -22.110581772825732 0 0 0
3262 202 2 -0.1500644130375972 -8.773185839102164 -0.6270125296558483 -23.037182837060175 0 0 0
3263 202 1 0.06410337724965343 -8.380833836480594 -0.7165061848036627 -24.070922822452232 0 0 0
3264 202 1 0.08288429768673521 -9.683394015988462 -1.2707132899284337 -22.975925679040365 0 0 0
811 52 2 -0.1381065942832662 -2.8038240997684385 -5.611329656472808 -18.37255640137961 0 0 0
814 52 2 0.2054680043570038 -2.5743109338593912 -3.7345347223596557 -20.31276646520103 0 0 0
815 52 1 0.1527098358199384 -2.788755147264755 -2.7953211810991605 -19.786415653344125 0 0 0
816 52 2 0.2089540532251246 -2.512738630105472 -5.101974770018843 -19.79121487648716 0 0 0
817 52 3 -0.5475045631119032 -2.271918072849103 -3.752004809955983 -21.62925443929725 0 0 0
818 52 1 0.2551816140002872 -2.1920578781937494 -2.9636537709033597 -22.244959984638307 0 0 0
819 52 3 -0.5326590373280855 -2.1698422459713735 -5.845589863692165 -20.83775862063521 0 0 0
821 52 2 0.3319786092998044 -2.0295155397890166 -5.068607803228948 -21.989786701045002 0 0 0
822 52 1 0.06442747243449115 -1.7777524197340284 -5.4184472478817804 -22.987984810388834 0 0 0
824 52 4 -0.5243638997680077 -0.19214102661778676 -4.1291013079871055 -18.307887907496898 0 0 0
3250 201 2 0.592382830142781 -5.573566387945654 -1.859815775109667 -18.992407817011184 0 0 0
3251 201 4 -0.531571332212073 -4.906914848093539 -2.8387729248732048 -19.170785336532564 0 0 0
3252 202 3 -0.6272177397559151 -5.830359295590596 -0.8633491570608293 -19.86779432353222 0 0 0
3254 202 2 0.11673543126568 -5.311566235450118 -1.085368423804786 -21.1971639348488 0 0 0
3255 202 1 0.1144599481456889 -5.2410304366509814 -2.1851513934008047 -21.318685192562192 0 0 0
3257 202 1 0.08553184621213564 -6.028132845172574 -0.4583392104152189 -23.209020547525608 0 0 0
3272 202 2 0.5311310491349637 -3.8666384119785153 -0.3878733899081202 -21.417061582676165 0 0 0
3273 202 4 -0.512061907886551 -3.3468173419586145 -0.4671288216792551 -22.499314412308514 0 0 0
3283 203 4 -0.518967231529901 -1.836113562343039 -0.9661131780300537 -18.711153401445507 0 0 0
843 53 4 -0.4930041729973496 2.8454348252097366 -5.579747429753652 -18.444294236941502 0 0 0
846 54 2 0.1012382183482888 4.603972050986469 -3.400948597851266 -18.93347079309994 0 0 0
847 54 1 0.08658283718413909 3.964753195405045 -3.4598982920007613 -19.838200716440767 0 0 0
848 54 2 0.07521718645244979 5.272316306907813 -1.9952228789725248 -18.74300923884298 0 0 0
850 54 1 0.08661022310043873 4.493339805020882 -1.1977816490610997 -18.651716476262344 0 0 0
852 54 1 0.2752120949962603 5.696107760409893 -1.1913399634724846 -20.415837583225105 0 0 0
853 54 2 0.5518182316098067 5.8435526284355594 -4.399086840462888 -18.945833200239367 0 0 0
856 55 2 0.03781455063247011 5.721586069529736 -4.4031095152486115 -21.451853363539627 0 0 0
857 55 1 0.102213323924827 4.614828382232535 -4.394473285341572 -21.378849422681764 0 0 0
3286 204 2 0.1064561661784771 0.8577834423859794 -0.6554960577966644 -18.730706251220134 0 0 0
3288 204 2 -0.1440077367228407 1.7484938891120467 -1.3801655644389137 -19.8371772587355 0 0 0
3289 204 1 0.08098128926649324 2.473432527117658 -2.025650027417358 -19.298428946641106 0 0 0
3290 204 1 0.1108987653483948 2.3455836706872497 -0.6507140504171957 -20.42726929300124 0 0 0
3291 204 2 -0.1352047549623184 0.8362484252565567 -2.207191598507349 -20.775989708765085 0 0 0
3292 204 1 0.1048931021196911 0.10861686044492141 -1.5439433034058514 -21.29052973916679 0 0 0
3293 204 1 0.1540167427524114 0.23613665210186846 -2.949784274622329 -20.198627723355195 0 0 0
3294 204 2 0.640257046316335 1.7056464612847895 -2.9549890095372042 -21.953044846715986 0 0 0
3295 204 4 -0.4602685061099073 1.6156751677343284 -4.1793203913218075 -22.109473228247296 0 0 0
3296 204 4 -0.4744518781603079 2.360071548731685 -2.2264034246412128 -22.712852186308186 0 0 0
851 54 4 -0.6255771829677568 6.249753378305342 -1.6813177638232635 -19.793286189906304 0 0 0
855 55 3 -0.4652392877940743 6.348882091073721 -4.64149583536284 -20.153908751018594 0 0 0
858 55 1 0.09922678178347256 6.093562717561281 -3.4126324152185186 -21.80674227111092 0 0 0
859 55 2 0.0888967260660242 7.617586071319957 -5.329328971720184 -20.234450018825992 0 0 0
861 55 2 -0.1497179684367881 7.701484039191222 -5.718409961943764 -21.76945050474305 0 0 0
863 55 1 0.09160398312115145 8.341473709127357 -5.012703908298244 -22.336400771527305 0 0 0
864 55 2 -0.1447909969718471 6.2372698330666365 -5.632551079883683 -22.307327251910717 0 0 0
866 55 1 0.07731549049447223 6.168103566808807 -5.488023749472734 -23.409483957601562 0 0 0
867 55 2 0.5690751949535314 8.827582662465066 -4.482198552036392 -19.601768662793855 0 0 0
868 55 4 -0.5791330182450297 9.732960466065142 -5.184656226761689 -19.22039022701171 0 0 0
869 56 3 -0.599086573055655 8.826421855618442 -3.1364947079056766 -19.567137287130546 0 0 0
870 56 1 0.2987737891187402 8.037640264800457 -2.5312293175271376 -19.821690745796417 0 0 0
871 56 2 0.1287284833455875 10.026794636960014 -2.6390761846413437 -18.89415289954008 0 0 0
872 56 1 0.1534885151765625 10.880938059646516 -3.195567858608185 -19.348219597247063 0 0 0
873 56 2 -0.1610383922375949 10.144357099759848 -1.0671625935508204 -19.07275195079187 0 0 0
874 56 1 0.09110100987522093 10.964995003264148 -0.669650592416845 -18.422303163645005 0 0 0
875 56 1 0.09298086663871256 9.212006829509738 -0.5670810608046457 -18.722195927356097 0 0 0
876 56 2 -0.1678917292483654 10.363682047944781 -0.6525970301939717 -20.545499171278337 0 0 0
878 56 1 0.09166743273422942 9.50537816321379 -1.0037139701798596 -21.154817431199223 0 0 0
879 56 2 0.6650254390967532 11.739287625925137 -1.2657720130362913 -21.210867338810612 0 0 0
880 56 4 -0.4713002118609038 11.790650759971257 -2.489735645287233 -21.395323539954173 0 0 0
922 59 1 0.1497130548769732 11.769336581850604 -6.088894075276651 -19.364145412520074 0 0 0
881 56 4 -0.4470277497777115 12.65044062994407 -0.4911977966426299 -21.525737634802805 0 0 0
921 59 1 0.09611960071210504 13.244549811539347 -5.601650598113214 -20.21710560763585 0 0 0
2769 172 2 0.6094460231310564 -8.678676933174334 1.1196498033192401 -18.705689247168614 0 0 0
2770 172 4 -0.5884110230330121 -7.87298144682077 1.1598470820884943 -19.69817630150962 0 0 0
2771 172 4 -0.5104047913473543 -9.899451324643932 0.9551466047009474 -18.82667655748864 0 0 0
2793 174 1 0.08818901104508045 -10.675355392953719 5.37563049044617 -18.811765745097585 0 0 0
3258 202 1 0.1085051032494967 -6.4428905345264935 0.6980075045462967 -21.923298645515686 0 0 0
3265 202 2 0.01775342329526687 -9.115924756538286 0.8857869971967284 -22.9110353396411 0 0 0
3266 202 1 0.0703323115828858 -9.79879071905534 1.3005176907809093 -23.68136647034448 0 0 0
3267 202 1 0.08855261320100027 -8.244041060304303 1.5510832196585627 -22.745507061916225 0 0 0
3268 202 3 -0.6694498882131592 -9.890126211194515 0.9998337711591444 -21.58213734407963 0 0 0
3269 202 1 0.2433337779836121 -10.661565843901801 0.3197725384773737 -21.307911046033364 0 0 0
3270 202 1 0.3437905459808264 -9.182503181849688 0.9578747529765154 -20.745015081088347 0 0 0
3271 202 1 0.2271819125281934 -10.396881493160022 1.9155376021216863 -21.418904099391707 0 0 0
3274 203 3 -0.5571278228073432 -3.4425740603476167 0.3173923409038547 -20.35417885583809 0 0 0
3275 203 1 0.2553875179286917 -3.973396363310069 0.06469264420709349 -19.525870827127903 0 0 0
3276 203 2 0.0941695088957783 -2.178998295289237 0.9768089321860051 -20.22827171341288 0 0 0
3277 203 1 0.1054841008743458 -1.7601122524055024 1.1076211250053396 -21.250871987725258 0 0 0
3278 203 2 -0.2238543414306937 -2.509769862344829 2.325776093369833 -19.47875967217216 0 0 0
3279 203 1 0.06965362452177525 -2.789439129784779 2.185233569438884 -18.412348818249097 0 0 0
3280 203 1 0.06449307426919146 -1.6569895217213004 3.0377806088572505 -19.476716443930616 0 0 0
3281 203 1 0.08687985949008893 -3.3766349857125695 2.8355441089007556 -19.954518275332962 0 0 0
3282 203 2 0.5460833227807658 -1.3369889725300632 -0.0541171209994676 -19.32835112367519 0 0 0
3284 204 3 -0.5964599204440194 -0.030533925509265036 0.26335275673110964 -19.392011437959624 0 0 0
3285 204 1 0.2271124282051376 0.25552205311094983 1.0966729024835085 -19.911520168047343 0 0 0
877 56 1 0.08159672095740686 10.37308415585403 0.45699071602713726 -20.62809513116541 0 0 0
3348 208 2 -0.07465805017263191 9.70524726241359 3.285045469876533 -18.8719174213247 0 0 0
3349 208 1 0.07620942657643306 9.28001796824447 2.7551291106445395 -19.74465712797913 0 0 0
3352 208 2 -0.07755081239000364 9.358566919000776 4.638809139653552 -18.623569030607776 0 0 0
3353 208 1 0.07795526921157071 8.685500523319078 5.1704605373400225 -19.321270824295215 0 0 0
2792 174 2 -0.2092689743485752 -10.323970730127476 6.427096810343946 -18.956156078479072 0 0 0
2794 174 1 0.09386344601273372 -10.991808088344234 6.913474943039031 -19.703274183737257 0 0 0
2795 174 1 0.07046681597395317 -9.318839687354421 6.35450986373418 -19.428717841912743 0 0 0
69 5 1 0.09264852625620336 -15.269028839615315 -18.286997814226726 -13.73844693282627 0 0 0
70 5 1 0.08699060399656408 -13.764763184850601 -18.93463900106001 -14.517292786469099 0 0 0
37 3 1 0.08082688193696251 -8.78160758611868 -18.880942240288373 -16.706903011739353 0 0 0
39 3 2 0.6229710911018342 -10.922046575441216 -18.316908150326494 -16.790598372963103 0 0 0
40 3 4 -0.5704299197900472 -11.226658498076347 -19.51342061874994 -16.398415188837475 0 0 0
82 6 2 -0.1326503702383989 -9.685504480541523 -20.11251761026736 -13.2123664475847 0 0 0
83 6 1 0.09922343975052997 -8.953874424938213 -19.624440351913957 -13.892769030174618 0 0 0
84 6 1 0.115429541086544 -10.692130598838002 -19.83817304697649 -13.6071079639861 0 0 0
85 6 2 -0.1544379433424343 -9.516353806199238 -21.677991764897044 -13.247810649587993 0 0 0
86 6 1 0.06709174698700253 -8.805205201785748 -22.018676432922604 -12.460153778331886 0 0 0
87 6 1 0.07931994098147563 -10.493941259223128 -22.16843949772034 -13.039949129615003 0 0 0
88 6 2 0.002069391461008006 -9.121887282593912 -22.23758722177544 -14.651431831815197 0 0 0
89 6 1 0.06694706020470327 -9.13332512582936 -23.349226393121093 -14.730793292168189 0 0 0
90 6 1 0.08044594350842627 -8.222317703751754 -21.805890434898508 -15.139249362088137 0 0 0
91 6 3 -0.66267257628548 -10.272111208876519 -21.80755487098509 -15.564639917188469 0 0 0
92 6 1 0.3173051915292676 -10.505792576802873 -20.714970047871162 -15.897398957200066 0 0 0
93 6 1 0.2136246801393388 -10.176962184467857 -22.295946183510857 -16.488556515943003 0 0 0
94 6 1 0.2170647281600116 -11.217715656682628 -22.163066761684327 -15.266833428795966 0 0 0
648 42 5 -0.15698297048718 5.231219553482261 -19.098745372998916 -13.486413777895772 0 0 0
649 42 2 -0.1308923567633009 3.6616094842125526 -18.98120955963336 -12.51570439516355 0 0 0
650 42 1 0.08112807964129905 2.704064333106114 -19.128468183830442 -13.081922349959605 0 0 0
608 39 1 0.06188395178508008 11.401033978636328 -20.268176792682084 -12.240331807259295 0 0 0
642 42 2 -0.127145657995013 7.644292576132094 -18.482985101533703 -12.529687570379338 0 0 0
644 42 1 0.09297968542609275 8.00603605028259 -18.963711046283624 -13.466589499245895 0 0 0
63 4 4 -0.5146750392442191 -12.442568099767769 -14.434542051161065 -12.632279402973584 0 0 0
64 5 3 -0.5720731599837114 -12.562044112124648 -16.233272161428467 -14.029660918105286 0 0 0
66 5 2 0.1036604029797586 -13.519828378487674 -17.02571095368596 -13.289028647758132 0 0 0
67 5 1 0.1307132668977887 -14.184388392213577 -16.272041278395815 -12.823310463403468 0 0 0
68 5 2 0.0892346297764192 -14.319842274387087 -17.983855494450054 -14.261242110203435 0 0 0
71 5 4 -0.5237174214923009 -14.632344269407273 -17.42833038379422 -15.562710287656657 0 0 0
72 5 1 0.367936038379061 -13.784791093263301 -17.52631630302977 -16.041301546232187 0 0 0
73 5 2 0.5176837085495941 -12.78009524773741 -17.830356395631622 -12.122773093678044 0 0 0
3131 194 2 0.22871897098059 -13.840801284050587 -12.251851064049918 -15.891736376640337 0 0 0
3132 194 4 -0.5390896855887679 -13.831440406904946 -13.11558240107342 -17.010705776920553 0 0 0
3133 194 1 0.2831875236938299 -13.920413712731193 -12.508184352838581 -17.762652734815756 0 0 0
3135 194 1 0.1265590950958945 -14.585625487576936 -12.608412361734132 -12.505314349270162 0 0 0
3136 194 2 -0.04766795624697241 -14.39382323066578 -12.774501869692616 -14.677443154883735 0 0 0
3137 194 1 0.1320203396906534 -14.929859896477861 -13.737787926939868 -14.720481702271535 0 0 0
30 2 2 0.5602248579402181 -6.564651083587475 -15.915634556652599 -17.327649849344265 0 0 0
31 2 4 -0.477732904239836 -6.903381891330618 -14.950104628323201 -17.951937798680575 0 0 0
32 3 3 -0.567384656675456 -7.401000941824727 -16.899088860081083 -16.891324210605934 0 0 0
33 3 1 0.2323491709135624 -7.047701459903183 -17.79972095401722 -16.570956771225646 0 0 0
34 3 2 0.09602579197427963 -8.842404017880746 -16.678235879778946 -16.86129548822011 0 0 0
35 3 1 0.1255141814933092 -9.05044971722454 -15.896303893732966 -17.625166104436726 0 0 0
36 3 2 -0.1687832132490225 -9.387080718908894 -18.09409049109448 -17.199929875355604 0 0 0
41 3 4 -0.5206193141382189 -11.717078315866326 -17.375448295779922 -16.883050995183805 0 0 0
42 3 2 0.5483471899371651 -9.253376142735679 -16.198989347913283 -15.36893776193091 0 0 0
43 3 4 -0.5389686827869783 -8.70768077269844 -16.675494223006766 -14.403540565796733 0 0 0
44 4 3 -0.5967963188768075 -10.26383943878994 -15.311984817752894 -15.335420615709815 0 0 0
45 4 1 0.2702142475951175 -10.713855252239636 -15.122474937216786 -16.224643669173833 0 0 0
46 4 2 0.1102800113250152 -10.558363798150356 -14.675401437223888 -14.088440658735465 0 0 0
47 4 1 0.1080554115143901 -9.735985787954595 -15.007776648699046 -13.420709854175161 0 0 0
48 4 2 -0.1437408602291066 -10.631812438135206 -13.090527310167628 -14.209347990020206 0 0 0
49 4 1 0.09769475811482245 -10.955496468489804 -12.686725746671712 -13.220187289322846 0 0 0
50 4 1 0.104014784099893 -11.432732394663985 -12.765188028378805 -14.913402387390965 0 0 0
51 4 2 -0.002159166718314957 -9.292575491831427 -12.438050303535594 -14.625482125051235 0 0 0
58 4 2 -0.06662094620457099 -7.990262344565373 -12.831083902627537 -14.199353038246805 0 0 0
59 4 1 0.0821418376224336 -7.852093732746064 -13.72907165726466 -13.572391230227936 0 0 0
62 4 2 0.5453890701105786 -11.997205936235677 -15.118923534477554 -13.514600240339094 0 0 0
65 5 1 0.2926852488442517 -12.03470780360527 -16.616246500148396 -14.803064338082399 0 0 0
75 6 3 -0.5548697782855243 -11.425214214768252 -18.014296454283134 -12.141425341089723 0 0 0
76 6 1 0.2545693889217775 -10.919825578978406 -17.313062684749124 -12.680303308428071 0 0 0
13 2 3 -0.5460328289654302 -4.127541851699018 -16.06516349935721 -17.96200646924452 0 0 0
14 2 1 0.2784055131986461 -3.5853579714851094 -15.23101577922544 -18.178564030878942 0 0 0
15 2 2 0.1000558438937575 -5.058367994181529 -16.094088680425724 -16.81928886908432 0 0 0
16 2 1 0.09543709714988968 -4.98930161546416 -17.11701486188542 -16.40379011495902 0 0 0
17 2 2 -0.1414465816350931 -4.634887114084455 -14.98276637607999 -15.778803272025204 0 0 0
18 2 1 0.07971032321672782 -5.463731566580936 -14.872900913271119 -15.04383563338237 0 0 0
19 2 1 0.1065244601494468 -4.548780800352357 -13.982699942933113 -16.258958057265307 0 0 0
20 2 2 -0.07982899576463405 -3.2763827063837208 -15.12989508766808 -15.003792362854686 0 0 0
21 2 1 0.107443626246402 -2.4437228806246374 -15.016734761890499 -15.732694779365122 0 0 0
22 2 2 -0.2235119680686697 -3.122290715652827 -14.0091736962325 -13.905419434798844 0 0 0
23 2 1 0.08925660252867992 -2.998114015326961 -13.001349394224084 -14.363624727972558 0 0 0
24 2 1 0.07706055938449362 -3.9925285454327515 -13.9486982109658 -13.206523815938839 0 0 0
25 2 1 0.07849521934881214 -2.215580728449133 -14.157709658240307 -13.273765421379599 0 0 0
26 2 2 -0.2043020008084395 -3.118552266824651 -16.52346517031239 -14.2982012236818 0 0 0
27 2 1 0.07996084706355627 -2.0508671976865407 -16.71780505422704 -14.042316707301122 0 0 0
28 2 1 0.07593184414699662 -3.6964925315804096 -16.603101193474842 -13.347883397988952 0 0 0
29 2 1 0.08948331152637799 -3.4463359808170795 -17.36253064464957 -14.955251653900616 0 0 0
61 4 1 0.07350726661820667 -5.878175719952861 -12.258896843754064 -14.136685757337531 0 0 0
760 49 2 -0.1500057526196071 -1.371825567342707 -12.49865209766486 -16.782694943181756 0 0 0
761 49 1 0.0871681864880845 -2.4451921571735635 -12.735027282021667 -16.94675324761558 0 0 0
762 49 1 0.1021427885847868 -1.0478189431289133 -13.077432691472051 -15.885874633171552 0 0 0
763 49 2 -0.1440201570270812 -0.5760888426321051 -12.933613834794611 -18.038504776594884 0 0 0
768 49 4 -0.5618835131393636 -0.928133999016724 -15.415950228650473 -18.19365678630853 0 0 0
690 45 3 -0.476260520280921 5.194505705044634 -13.049921173056921 -14.82984403105247 0 0 0
694 45 2 0.08204088338991887 4.1278762356073635 -13.2863830425757 -15.817892862346135 0 0 0
695 45 1 0.1219190621466126 4.277915062122538 -12.545406024696627 -16.62783652143387 0 0 0
696 45 2 -0.1472743623142424 4.388717476917517 -14.774120240347258 -16.265182424024356 0 0 0
697 45 1 0.08428504522075835 3.9891246418804815 -14.95013894987896 -17.287817690258894 0 0 0
698 45 1 0.08710570753438099 3.8880305232895664 -15.507077412547904 -15.594503280016045 0 0 0
699 45 2 -0.1258874865008612 5.946462270696455 -14.889803468881803 -16.14870599050112 0 0 0
702 45 2 0.5727420125264567 2.688453944962769 -13.150486561225007 -15.120792683947126 0 0 0
703 45 4 -0.5785561208301289 1.749717320150819 -12.781188219274135 -15.833387381905506 0 0 0
704 46 3 -0.5911907572273637 2.623735742217449 -13.567113159578017 -13.870076204584151 0 0 0
705 46 1 0.2670620680522916 3.5179886796519604 -13.89583666648055 -13.510501168920813 0 0 0
706 46 2 0.1096291758413851 1.3813275017866347 -13.566021042134828 -13.123398195271783 0 0 0
707 46 1 0.09789421981392582 0.6315228437983561 -14.022703573226526 -13.802602735289714 0 0 0
714 46 2 -0.1911009804087384 1.6459149810894782 -15.89175076327247 -12.418586595006213 0 0 0
716 46 1 0.0806514708511817 0.7454657875979943 -16.026164761406054 -13.060408615743823 0 0 0
717 46 1 0.09515895380482316 2.537154741716216 -16.114109342584 -13.047957839904356 0 0 0
718 46 2 0.5681271503077657 0.9107389841136423 -12.082602416018123 -12.726243394645284 0 0 0
764 49 1 0.1359612683881964 0.49549937232134894 -13.111305394460599 -17.8043461278714 0 0 0
630 41 2 0.1155046059922207 10.81716086016185 -15.092922730246997 -13.49385494829039 0 0 0
631 41 1 0.09935032943781996 10.914104890438121 -14.030198900991424 -13.809353902079883 0 0 0
632 41 2 -0.2122590973119008 11.633634626768792 -16.01974449322793 -14.453896284042786 0 0 0
634 41 1 0.08625500853283344 11.636164300543818 -17.065787701039078 -14.068675346250604 0 0 0
635 41 1 0.09365243058270961 11.152609582082833 -16.022855667141602 -15.458498175271153 0 0 0
636 41 2 0.56761598362657 9.32750599987084 -15.666091275528853 -13.578862136774605 0 0 0
637 41 4 -0.5535974744660388 8.748805087666646 -15.431301080153963 -14.609670869428557 0 0 0
638 42 3 -0.6014428960702231 8.865316407072303 -16.4853307915498 -12.614962255589338 0 0 0
640 42 2 0.1265377004844871 7.490080454623271 -16.91836378975844 -12.700746300330465 0 0 0
641 42 1 0.11270974933577 7.069055008786636 -16.64022477296736 -13.690168156909264 0 0 0
691 45 2 0.05558557937866417 6.252042742641935 -14.084044113768549 -14.822461651070705 0 0 0
692 45 1 0.1063047313727464 7.242259912770199 -13.591067548283945 -14.805216547508083 0 0 0
693 45 1 0.1082180506570212 6.120512168118785 -14.650169721695878 -13.879745489537644 0 0 0
700 45 1 0.0944895722138242 6.454375391784866 -14.394155121203685 -16.99861389912578 0 0 0
701 45 1 0.09293490253127945 6.335010908388769 -15.933603114762766 -16.12554316151935 0 0 0
633 41 1 0.07615438445810974 12.695789225572867 -15.69492089125327 -14.589397949487035 0 0 0
1029 66 1 0.08215055174409439 22.283117490863876 -12.65553899123976 -12.367700804979103 0 0 0
3126 194 2 -0.02312785244460443 -13.539689570260819 -10.889298046488372 -13.423219196056719 0 0 0
3127 194 2 -0.0836631398182785 -13.16189639352062 -10.254693244433968 -14.648558039672983 0 0 0
3128 194 1 0.1029523035466892 -12.762342452607188 -9.227551120241433 -14.599316738623276 0 0 0
3129 194 2 -0.1218371333414004 -13.26108432265644 -10.945986721759148 -15.87114746345753 0 0 0
3130 194 1 0.06775529941680634 -12.882403136092792 -10.49314852872015 -16.81022949996844 0 0 0
3134 194 2 -0.06106204634651043 -14.229282096498236 -12.140609995020188 -13.441874914876424 0 0 0
3139 194 4 -0.5672793838766522 -16.140032741496295 -8.793660406462331 -12.831146892306776 0 0 0
3199 198 4 -0.5845886604458426 -13.110051712602077 -6.821283976957512 -14.110378470154059 0 0 0
3210 199 2 0.03019930984238883 -13.100144518410955 -7.318352787314496 -17.263784803669264 0 0 0
3211 199 1 0.09926896687366127 -12.765871735790414 -7.725407324070952 -16.284467860989185 0 0 0
3212 199 1 0.0531928371200157 -12.489307239173542 -7.737278475586275 -18.099193350827107 0 0 0
3213 199 3 -0.5817002803425652 -14.451247664519803 -7.8098791426165795 -17.53302980852295 0 0 0
3215 199 2 0.6965026957958134 -15.375899837819107 -8.240736661929514 -16.645322731601684 0 0 0
3216 199 3 -0.6955781423505065 -15.206514508864165 -8.102499643161678 -15.292070392435647 0 0 0
3217 199 1 0.3375415532825624 -15.927224245108986 -8.397391209593492 -14.609998343982397 0 0 0
3218 199 1 0.3515127272541425 -14.444042667943926 -7.56672390058718 -14.807567611695765 0 0 0
3219 199 3 -0.6821875763808546 -16.552140464539992 -8.844987468296505 -17.118212647594422 0 0 0
3220 199 1 0.2295752302186003 -16.564754004132126 -9.292811827229354 -18.02601103951238 0 0 0
3221 199 1 0.2535589159122483 -17.139610643713226 -9.355532035562751 -16.46154153812488 0 0 0
52 4 2 -0.08255673033053768 -9.480436203977012 -11.287732480998612 -15.441713132702063 0 0 0
53 4 1 0.06973667464854848 -10.49623823877627 -10.956193631657154 -15.72450126965959 0 0 0
54 4 2 -0.08158506909628799 -8.341415809759692 -10.596999331167652 -15.90775797714563 0 0 0
55 4 1 0.06688760161885232 -8.488877104615286 -9.749141675774975 -16.598383218112634 0 0 0
56 4 2 -0.05791195194861716 -7.038382902731726 -10.964063280255194 -15.480655569772987 0 0 0
57 4 1 0.111100791622205 -6.15631419402869 -10.411027313393836 -15.85679733741865 0 0 0
60 4 2 -0.07400672046526638 -6.877035701050518 -12.03457847233177 -14.55988066833293 0 0 0
3190 198 2 -0.09396770305135588 -10.218357772836686 -7.689582171974026 -12.406449968728612 0 0 0
3191 198 1 0.08596453701000878 -11.180017087123769 -8.225322110417277 -12.472361040595148 0 0 0
3192 198 2 -0.1085083761373253 -9.041217565141512 -8.258274003567315 -12.927265175654686 0 0 0
3193 198 1 0.0766633207490605 -9.10396325463927 -9.242890078745743 -13.428720345841706 0 0 0
3196 198 2 -0.08108900684027597 -7.760370771245727 -7.628542029055733 -12.849680322561841 0 0 0
3197 198 1 0.1285003894629992 -6.865943586561059 -8.09875614145624 -13.302104117525774 0 0 0
3203 199 1 0.08330693577742404 -11.179858623257442 -6.501285855729315 -15.436692250168369 0 0 0
3225 200 2 0.001264924848713496 -8.657438839566936 -6.660610850790889 -16.580717619241433 0 0 0
3226 200 1 0.06793728455124895 -8.888016802983069 -7.369603350261433 -15.748070973144694 0 0 0
3227 200 1 0.05758251044960172 -9.43244301688834 -6.780843606236238 -17.375719231320836 0 0 0
3231 200 1 0.1073017421357847 -6.11134664466731 -6.41048919253477 -15.270484001164538 0 0 0
3233 200 2 -0.1305429896637773 -7.184202044539035 -6.786995588101454 -17.157201216470018 0 0 0
3234 200 1 0.07324465369877811 -6.8063962269080385 -7.833472173736004 -17.173068015842055 0 0 0
3235 200 1 0.1030090047626898 -7.144086965430564 -6.4320770039631014 -18.210086585636567 0 0 0
719 46 4 -0.580179660757031 -0.23270335312741816 -11.772058814043328 -13.00583834394653 0 0 0
755 48 4 -0.5740477391503762 -0.007893534468600723 -8.450688095138847 -16.47322825427269 0 0 0
758 49 2 0.1048539767937832 -1.1954976131795316 -10.93477692967817 -16.576406177721793 0 0 0
759 49 1 0.1074581279359525 -1.1617457634196138 -10.371688804823656 -17.533381330782102 0 0 0
769 49 2 0.5354652440347504 -2.357892638209464 -10.361929266853858 -15.665382392899788 0 0 0
770 49 4 -0.5303798040601799 -3.380766207690835 -10.072727929335096 -16.231917264478977 0 0 0
771 50 3 -0.5715379723061014 -2.21039084003257 -10.294671474526476 -14.298005540773342 0 0 0
772 50 1 0.3272281955392952 -1.3386657646672633 -10.639716319593067 -13.835881572487096 0 0 0
773 50 2 0.1147573358756741 -3.4251849684075073 -9.817116140217571 -13.57618581495335 0 0 0
774 50 1 0.1177780071372923 -4.290694491272089 -10.129740201082184 -14.206697121589636 0 0 0
775 50 2 -0.08404176701612756 -3.509164020570774 -10.507408337291345 -12.268807346798935 0 0 0
776 50 1 0.09282629041919319 -3.3221596163538205 -11.597879081836744 -12.435635682883369 0 0 0
783 50 1 0.08295074837450528 -5.701178016951727 -10.350166016630013 -12.49584329780791 0 0 0
785 50 2 0.5651473437765765 -3.5167261833737826 -8.214645800752296 -13.610387080166118 0 0 0
786 50 4 -0.5570623250443878 -4.654005673494953 -7.790656071948018 -13.54097601364408 0 0 0
787 51 3 -0.5870632915230001 -2.4085798477535527 -7.447356602949647 -13.712375963635683 0 0 0
788 51 1 0.3113412863175694 -1.4690999139054144 -7.856978649749798 -13.651785174747815 0 0 0
789 51 2 0.1188173367236927 -2.7044517339699508 -6.051695847352035 -13.901094184075518 0 0 0
807 52 3 -0.5957692451791149 -1.8811164106924723 -6.398943312605314 -16.246929449842565 0 0 0
808 52 1 0.3038218250244563 -1.6935254985647261 -7.345482492470283 -15.909758896167176 0 0 0
810 52 1 0.1178656408838279 -1.1567945248069749 -7.05295080540757 -17.906565443156587 0 0 0
677 44 1 0.1009623123318341 5.918913347579591 -10.905041174140104 -12.33413563673899 0 0 0
688 44 2 0.5405325956513746 5.184294620404504 -11.97908425747413 -14.052707612603683 0 0 0
689 44 4 -0.5852117518399768 4.350217831006659 -11.08140803457786 -14.080754286643561 0 0 0