LAMMPS data file via write_data, version 2 Aug 2023, timestep = 22, units = real

5063 atoms
5 atom types

-48.358 48.358 xlo xhi
-48.358 48.358 ylo yhi
-48.358 48.358 zlo zhi

Masses

1 1.00794
2 12.0107
3 14.0067
4 15.9994
5 32.065

Atoms # full

3007 198 1 0.2407104243115187 -6.9859251888711285 5.700303031068626 -32.27901418190655 0 0 0
3010 198 1 0.2417807450244033 -4.885834838166799 5.568672438686009 -31.833145634516423 0 0 0
3005 198 3 -0.6910382679593119 -6.992560993737639 6.315343325256661 -31.470968404869467 0 0 0
3006 198 1 0.3551273607665579 -7.9901347023093345 6.622655259571586 -31.3265093528993 0 0 0
3055 202 4 -0.5415293557066908 -9.284319257864407 7.514299989346935 -30.722786409783954 0 0 0
3004 198 2 0.6675965025402369 -5.8638861035644725 6.610141003676345 -30.71351477662992 0 0 0
3008 198 3 -0.6799194192031426 -4.616137720621328 6.1211740939221215 -30.969798659050056 0 0 0
3009 198 1 0.2469657609964195 -3.855329493580631 6.236010814523451 -30.288901697411156 0 0 0
3042 201 4 -0.4893483883758911 -13.500295530907326 5.930489939234659 -26.471428985344897 0 0 0
3046 202 1 0.1402734839202429 -11.234476827426109 5.611221506008195 -26.825080572671 0 0 0
3057 202 4 -0.5109337730766789 -9.56533904003983 5.120891886428709 -24.791825458861247 0 0 0
2948 195 2 -0.1533027062485434 -3.083569772768636 5.812613275512116 -24.583294003336693 0 0 0
2949 195 1 0.06950434345901588 -3.036044010138613 4.98629909059788 -25.329972986817943 0 0 0
2929 194 2 -0.1424294716518937 1.5427352648534158 5.689493603186956 -26.730849371234587 0 0 0
2930 194 1 0.08435088191378451 1.0404482186416597 5.693643195887011 -27.72585876809415 0 0 0
2931 194 1 0.09577679752175751 1.0011367144081642 4.909434189629109 -26.145091926105483 0 0 0
2932 194 2 -0.07276577068878742 3.01003767159849 5.182274081252139 -26.955525204574432 0 0 0
2933 194 1 0.1075674884497628 3.5288598851623556 5.003692269417357 -25.983784967689296 0 0 0
2934 194 2 -0.2166747023580723 2.9145499776419874 3.880252110750582 -27.834300522329844 0 0 0
2935 194 1 0.08086203818431363 3.9183998227563794 3.5410478040681785 -28.183749090535493 0 0 0
2936 194 1 0.0844472156083801 2.443658843373539 3.028592519624442 -27.28686271468533 0 0 0
2937 194 1 0.07886841319774773 2.3072775112557524 4.061042275781775 -28.75173524787564 0 0 0
2939 194 1 0.07801459471085766 4.861342968320263 5.716743642581655 -28.082062811583768 0 0 0
3033 201 3 -0.5812658479228133 -13.679038117440994 9.333439880152653 -25.302567840679725 0 0 0
3034 201 1 0.2291621270740258 -13.367380010608645 9.855423639800508 -26.116721379986735 0 0 0
3035 201 2 0.1126193937007975 -14.205972933162288 7.9875958852344136 -25.42929645597964 0 0 0
3036 201 1 0.1334274398243439 -14.586484126528934 7.707423261895317 -24.41798774395847 0 0 0
3037 201 2 -0.2003630688890914 -15.306975996816417 8.037144642152606 -26.5581431054454 0 0 0
3038 201 1 0.0940907936854897 -16.005921204145977 7.165030949116648 -26.499487714731597 0 0 0
3039 201 1 0.08193215958543043 -15.928215428594013 8.964221126428587 -26.5172246684504 0 0 0
3040 201 1 0.08566490713675022 -14.844723235177108 8.01197692695181 -27.580305864756983 0 0 0
3041 201 2 0.5433136296213643 -13.123834092330908 6.98398412601474 -26.024527194676548 0 0 0
2991 198 2 0.1101022510170601 -6.334586570780912 10.340279937461826 -26.97765827411619 0 0 0
2992 198 1 0.110533630082806 -6.299086460268911 10.56655167040097 -28.061094923498466 0 0 0
2993 198 2 -0.1415209234492722 -6.25930449459577 8.802120026524447 -26.639915304004845 0 0 0
2994 198 1 0.08163812895837043 -7.231903713380868 8.310356567177639 -26.858839899694726 0 0 0
2995 198 1 0.1109561853233546 -6.1063672944827845 8.661616697894459 -25.54486949241764 0 0 0
3002 198 3 -0.5550032371995686 -6.1067007287992245 7.460597350734836 -29.60428797530041 0 0 0
3003 198 1 0.3239421968939515 -7.034019895955085 7.900421057129389 -29.565879007253344 0 0 0
3011 198 2 0.561313514730621 -7.657969985621136 10.997125253621872 -26.37619653781374 0 0 0
3012 198 4 -0.4937943244754305 -7.76086238410599 11.406208706524437 -25.259290202228314 0 0 0
3013 199 3 -0.5625031294818523 -8.690014136880334 10.870972677087392 -27.261934314904295 0 0 0
3014 199 1 0.2997188981753956 -8.493784455194499 10.443594044978367 -28.191912664727113 0 0 0
3015 199 2 0.09404392592102381 -9.963194416257242 11.57551408792484 -26.97860305063736 0 0 0
3017 199 2 -0.2231299922348343 -10.757684448272986 11.585743296129413 -28.335008203340355 0 0 0
3018 199 1 0.07410433334850489 -11.14883471395356 10.581644588409311 -28.628368708387885 0 0 0
3020 199 1 0.1003979814338199 -10.120271341597423 11.922861362226255 -29.190983011982233 0 0 0
3021 199 2 0.5589234611463707 -10.72534359772896 10.875308790585946 -25.79101542704764 0 0 0
3022 199 4 -0.5877099416667906 -10.423613038255231 9.727491121072404 -25.438657714995742 0 0 0
3023 200 3 -0.6142162188914431 -11.753237150277572 11.578431790715287 -25.31167026237685 0 0 0
3043 202 3 -0.5661444012165268 -11.860862808242038 7.452260125639537 -26.12607473121117 0 0 0
3044 202 1 0.2984030572093739 -11.680416032837252 8.361023018609288 -25.654558900238687 0 0 0
3045 202 2 0.09262048987278271 -10.73841946926767 6.524593817585485 -26.42093365386847 0 0 0
3047 202 2 -0.1454962460211931 -9.825412369946545 7.234767598714756 -27.435852334377664 0 0 0
3048 202 1 0.07727239927412141 -9.003095032031851 6.524917283587129 -27.689363911981733 0 0 0
3049 202 1 0.1158175585765408 -9.306198410624985 8.070841557844753 -26.91114491682436 0 0 0
3050 202 2 -0.1400022398164907 -10.460127599557815 7.75120237306848 -28.64190933766573 0 0 0
3051 202 1 0.08006175286992549 -11.146052290448418 8.603252943994363 -28.422815912909282 0 0 0
3052 202 1 0.1071549611924758 -11.10086619641685 6.9715044444705105 -29.135221424997717 0 0 0
3053 202 2 0.6346134062857779 -9.363452137548995 8.282855480275112 -29.729142801913667 0 0 0
3054 202 4 -0.5845777073346323 -8.44448681750052 9.020234768575587 -29.266762269705584 0 0 0
3056 202 2 0.5603919379145401 -9.900131560818897 6.224228407723498 -25.0543946287966 0 0 0
3058 203 3 -0.5796616441209819 -9.635060073946734 7.336555080360359 -24.334586203089412 0 0 0
3059 203 1 0.3108093978361701 -9.927116802972275 8.270513243750312 -24.727114439907584 0 0 0
2942 194 2 0.5437602826739307 -0.23988872233403236 7.431997157480194 -26.178867743587993 0 0 0
2943 194 4 -0.5192382740772514 -0.6805578199670446 8.002793859374496 -27.154473065258006 0 0 0
2944 195 3 -0.5827670087908228 -0.9820383065551321 6.856904778722877 -25.216423881482907 0 0 0
2945 195 1 0.2463883287494411 -0.40654053137355933 6.4150460234250914 -24.50565028018106 0 0 0
2946 195 2 0.0959076896005444 -2.40137801278692 7.104827634152808 -25.18237721623945 0 0 0
2947 195 1 0.09649760856098617 -2.6703289282601443 7.3227096167884715 -26.23897302841595 0 0 0
2950 195 1 0.09963359545558588 -4.167192362566021 6.008550531362392 -24.409505697387026 0 0 0
2966 195 2 0.5221987105868409 -2.79978246677551 8.301251873403844 -24.199042131267866 0 0 0
2978 197 3 -0.6086626903304396 -2.7412454986780195 11.593098982952718 -25.131578378035137 0 0 0
2979 197 1 0.2421213734442032 -2.01494444709862 10.997965318932774 -25.52895855982668 0 0 0
2989 198 3 -0.5536563185812384 -5.0750090728972514 10.84843484052982 -26.448387855435666 0 0 0
2990 198 1 0.2683811760730078 -4.501019744320214 10.33842294240086 -25.777532448534156 0 0 0
2996 198 2 -0.1457959626010318 -5.095573354164894 8.06850026108987 -27.387545016674782 0 0 0
2997 198 1 0.0760355762487725 -5.112486992279101 6.988036427058384 -27.120265566896467 0 0 0
2998 198 1 0.08003297910351719 -4.127033522295114 8.463934135945495 -27.00847310324248 0 0 0
2999 198 2 0.04278177818956846 -5.023882180702402 8.212530842089143 -28.963748233524704 0 0 0
3000 198 1 0.08378699841501235 -4.079551141068028 7.8364052401548 -29.42540284110031 0 0 0
3001 198 1 0.0963158716123394 -5.19939642369562 9.27270389707041 -29.27819996640679 0 0 0
2924 193 4 -0.5382026255371914 1.1081192282498373 9.160450210482244 -24.21569579373391 0 0 0
2925 194 3 -0.5992510711924475 1.7897179965325203 7.05410297266199 -24.677886517615928 0 0 0
2926 194 1 0.3045377727118057 2.2325115546203245 6.200623309501138 -24.268933485729434 0 0 0
2927 194 2 0.1132650289583816 1.33005487745112 7.101573857375056 -26.068143312773717 0 0 0
2928 194 1 0.1120870202595134 1.8772922301065817 7.927049473244625 -26.561821456327127 0 0 0
2938 194 2 -0.2067057027164732 3.8383760303690573 6.125838157020099 -27.8963025684437 0 0 0
2940 194 1 0.08262168719580985 3.344191058530738 6.238542900301989 -28.891290686494955 0 0 0
2941 194 1 0.0927689946997492 3.9624920270864292 7.1470882739386825 -27.466393275888226 0 0 0
3028 200 1 0.08290689126572723 -14.22637532855738 12.329374542639801 -24.4880801916171 0 0 0
3016 199 1 0.09612984672078742 -9.659374481029722 12.606031994692595 -26.696476993183246 0 0 0
3019 199 1 0.05711287463621541 -11.639402555037604 12.27114838436364 -28.293801261091854 0 0 0
3024 200 1 0.2068083969859875 -11.847626743746822 12.537285390876772 -25.641491000870225 0 0 0
2980 197 2 0.1162363383047416 -3.410226484218551 12.66361536105782 -25.81936100732217 0 0 0
2981 197 1 0.1483808210449034 -3.770032487227259 13.332244884409496 -25.00376683179204 0 0 0
2982 197 2 0.08714608698662689 -2.360785427190521 13.365555591247062 -26.758580288596495 0 0 0
2983 197 1 0.1184990531193802 -2.9028687559883792 14.143931863638286 -27.371349951249236 0 0 0
2984 197 1 0.06863611192046434 -1.9136117102493275 12.62194060286823 -27.478543915443932 0 0 0
2985 197 4 -0.5502776320120443 -1.297426621161103 14.048045220678375 -26.041902210117012 0 0 0
2986 197 1 0.2858864105791491 -0.6393006046197144 13.344944637910006 -25.944637485580174 0 0 0
2987 197 2 0.5471940055779108 -4.638755374704162 12.09084989485855 -26.69722318894592 0 0 0
2988 197 4 -0.5040832204854593 -5.10344935656616 12.825999809552382 -27.5303385773233 0 0 0
4536 303 2 0.1094820597038548 -4.756937440085356 -24.735108644011547 -19.85423825592218 0 0 0
4537 303 1 0.1243041325215583 -5.444139924100286 -25.552382971978098 -20.165975066795426 0 0 0
4538 303 2 -0.1767260892404958 -3.405263030638349 -24.78983495766101 -20.610961407408652 0 0 0
4539 303 1 0.08985300330069837 -2.731284498207414 -25.5566944997227 -20.1765229463036 0 0 0
4541 303 2 0.6506361562681788 -3.6313011977980625 -25.10235035037236 -22.196483915001416 0 0 0
4542 303 4 -0.4533418620653792 -4.714828818191398 -24.814609457641442 -22.72650887456845 0 0 0
4543 303 4 -0.4427250100754064 -2.6499899272629337 -25.5067526120233 -22.840298770529838 0 0 0
4544 303 2 0.5361848755173173 -4.626449485699449 -24.706587861330092 -18.253979839760866 0 0 0
4514 301 1 0.1173649790126379 -8.804345911582871 -19.059241218143764 -18.239250902860174 0 0 0
4525 301 2 0.5945985942496951 -6.975641302430021 -20.259476847938434 -18.704071552116186 0 0 0
4527 302 3 -0.5742780317898103 -7.693505499118424 -20.82625889711032 -19.691993664524006 0 0 0
4528 302 1 0.2353015226131541 -8.73849052661876 -20.733193852879957 -19.749606182447607 0 0 0
4529 302 2 0.03517179688370203 -7.045552422863591 -21.760500124748752 -20.63586254568387 0 0 0
4530 302 1 0.07999472401366078 -7.86380956244597 -21.932143268591677 -21.367384423433684 0 0 0
4531 302 1 0.08214195688332515 -6.204888874902316 -21.204912209779575 -21.112675765904555 0 0 0
4532 302 2 0.57715193601032 -6.590923347485334 -23.11967727498773 -19.924207204505567 0 0 0
4533 302 4 -0.5061801534785684 -7.308372736917712 -23.77125763004595 -19.21487649453084 0 0 0
4526 301 4 -0.5410904180650676 -5.8453365745332215 -20.31104778825621 -18.47953986485516 0 0 0
4534 303 3 -0.5924540212129905 -5.34694578338238 -23.465000703650958 -20.30533812723385 0 0 0
4535 303 1 0.2404698037335449 -4.8460656457832805 -22.900219924580142 -20.98468596498035 0 0 0
4540 303 1 0.07505715768227875 -2.8646357073222175 -23.823257309801935 -20.507939622692405 0 0 0
4547 304 1 0.2912676587377991 -4.9750609068839635 -22.732236394231954 -18.194086403592028 0 0 0
4556 304 1 0.08220931372737386 -1.6949449772474658 -22.384344466837078 -18.253439994203372 0 0 0
4518 301 1 0.0832088122013469 -6.894620567511579 -17.277715161893756 -18.953356803880425 0 0 0
3120 206 1 0.05957753822888653 -3.827105666787626 -0.7194107826644458 -18.894008581249373 0 0 0
3072 204 3 -0.561093330234214 -8.670271826698864 5.292118805985538 -21.743064422925563 0 0 0
3073 204 1 0.2739961966279773 -8.17655298710045 4.89700107692041 -22.541722937324007 0 0 0
3074 204 2 0.1092222575766592 -8.460861613322455 4.847136354098162 -20.37268589711572 0 0 0
3075 204 1 0.1156781597115942 -8.691436164459136 5.728607088093935 -19.732704863478773 0 0 0
3076 204 2 -0.06676400428891374 -9.532786774358463 3.6994711662811652 -20.194651788132145 0 0 0
3077 204 1 0.1231568660556121 -10.539547524786064 4.118262626754674 -20.43809855732325 0 0 0
3078 204 2 -0.1946749494364804 -9.253908463524224 2.4124162278338344 -21.04538434486804 0 0 0
3079 204 1 0.1170808292728209 -9.420775328207366 2.582800567139772 -22.133895681538732 0 0 0
3080 204 1 0.09770619580909166 -8.20039859795746 2.070580328840666 -20.923610068707212 0 0 0
3081 204 1 0.06938655354077657 -9.917285302035864 1.5641423366085638 -20.73742816267305 0 0 0
3082 204 2 -0.1685329450597449 -9.501305501378448 3.071954763480554 -18.7577081823451 0 0 0
3083 204 1 0.08476997958253492 -8.509221007143855 2.60312098624771 -18.568404308205455 0 0 0
3084 204 1 0.08045746907847355 -10.243113514494507 2.241599147969128 -18.708945177128232 0 0 0
3089 204 2 0.5411138657316925 -6.940177484702606 4.365598139079591 -20.218330228212015 0 0 0
3090 204 4 -0.5244064995106951 -6.32734278822798 3.8363357469560637 -21.105117127202497 0 0 0
3091 205 3 -0.5817902600492034 -6.448367696810097 4.675563489910529 -19.00317865182699 0 0 0
3092 205 1 0.2396665483997303 -7.072749514786184 4.950993031751827 -18.247116223847016 0 0 0
2951 195 2 -0.1240418784385568 -2.4282577655656863 5.309535055768247 -23.251237550729698 0 0 0
2952 195 1 0.09633953573795664 -2.8571109702325255 5.854261691560405 -22.377930921180965 0 0 0
2953 195 1 0.1102313080003984 -1.3268799055798708 5.507154757150057 -23.227265051879517 0 0 0
2954 195 2 0.03270740233898575 -2.7039646959661545 3.762343346449509 -23.14265105350132 0 0 0
2955 195 1 0.08322680286996889 -2.2773560136102113 3.1706757863704085 -23.987761354205063 0 0 0
2956 195 1 0.09450017303164948 -3.774407196426073 3.4769595244239295 -23.009549701645355 0 0 0
2957 195 3 -0.549365967946711 -1.9538646030143763 3.245505657928919 -21.969468830163674 0 0 0
2958 195 1 0.3231024823079349 -1.0809924630275947 3.7100317632479514 -21.648841563361472 0 0 0
2959 195 2 0.6375474822060844 -2.1258578608126175 1.9180307223273139 -21.569458506917844 0 0 0
2960 195 3 -0.6736745458926841 -1.1295653744441716 1.4471578212487504 -20.659215992926345 0 0 0
2961 195 1 0.2650201859058602 -0.15375528220098272 1.7311168024696237 -20.648580664089447 0 0 0
2962 195 1 0.2191915866260842 -1.1034765989514657 0.43764231293680517 -20.61130842607205 0 0 0
2963 195 3 -0.6931498830432572 -3.1724864882723223 1.153911717165203 -21.990499642524373 0 0 0
2964 195 1 0.2519009745377581 -3.9960745188211124 1.463634741482544 -22.513517785508785 0 0 0
2965 195 1 0.2242011969650761 -2.8936385236696274 0.2590759543964629 -21.520548934144788 0 0 0
3093 205 2 0.1121702609280783 -5.108257084861709 4.1961944755904135 -18.686476521267643 0 0 0
3094 205 1 0.1088270350182989 -4.79071909655242 3.6042789898979164 -19.595033412815738 0 0 0
3095 205 2 -0.07790301007276147 -4.155235812712925 5.46471091168212 -18.4684060213571 0 0 0
3098 205 1 0.09680355629534826 -2.126651085252689 4.5491446072565935 -18.481115170646227 0 0 0
3101 205 2 -0.1198173186946811 -3.873471094018176 5.973804855497649 -19.926618334955837 0 0 0
3103 205 1 0.1025545777425773 -3.5918118254883766 5.103264424124147 -20.561237804905865 0 0 0
3111 206 2 0.01272100006750018 -4.196480115962002 1.4972953009847363 -18.63514813186946 0 0 0
3112 206 1 0.07712737922688594 -5.112640368931712 1.4860071196427012 -19.26879513567464 0 0 0
3113 206 1 0.09395377511487514 -3.4070788647845944 2.0840137667029266 -19.155349519820355 0 0 0
2920 193 2 0.6270513941949118 1.163258933956532 5.5432122249361555 -21.96867942370546 0 0 0
2921 193 4 -0.5422236035834217 0.3028966410488328 4.860293109015545 -21.355374537471047 0 0 0
2922 193 4 -0.5312474963579251 1.8337010770947086 5.131421909227579 -22.95318420990311 0 0 0
3025 200 2 0.1105405004823748 -12.365641888878937 11.156065237025228 -24.054516362784238 0 0 0
3029 200 1 0.09375627990768083 -13.952129101149955 12.036016450509283 -22.738193778019934 0 0 0
3031 200 2 0.5510504121230628 -13.100930494802007 9.73202974742673 -24.146031804052082 0 0 0
3032 200 4 -0.4753208594532022 -13.250532599890429 9.161361180690792 -23.09405241955964 0 0 0
3026 200 1 0.1055524726965169 -11.53493829784409 11.141978282159902 -23.313941196014728 0 0 0
3060 203 2 0.1056124840664057 -8.655232189432539 7.27460102525336 -23.244310856663137 0 0 0
3061 203 1 0.0941488688390171 -7.768655918151508 6.760464722610776 -23.667956255631257 0 0 0
3062 203 2 -0.1354247661563403 -8.490912526702674 8.815759316791837 -23.04416916417583 0 0 0
3063 203 1 0.118558268732172 -9.408289396394446 9.268547597166217 -22.592749935302503 0 0 0
3064 203 1 0.1236118604999666 -8.41933159235872 9.339025473493571 -24.033187278667107 0 0 0
3065 203 2 0.5964760502573218 -7.205813122620719 9.092244116365832 -22.182245731197447 0 0 0
3066 203 4 -0.4930487798707391 -6.51664224999918 8.236628383587073 -21.724214363009768 0 0 0
3067 203 3 -0.650995116207046 -6.930754403400157 10.422098640004538 -22.11313458325814 0 0 0
3068 203 1 0.2731323167090631 -7.449949137884856 11.211858201608166 -22.513365226373956 0 0 0
3070 203 2 0.5840363580719858 -9.17571558999413 6.542049473007909 -21.91292640520267 0 0 0
3071 203 4 -0.4813324402898688 -9.87930375916764 7.110774533798788 -21.118189201732047 0 0 0
2967 195 4 -0.5176395877793157 -3.9642596129348076 8.366268545783564 -23.894642621056732 0 0 0
2968 196 3 -0.5925616503125165 -1.8502885572139889 9.16991849798152 -23.805157283604597 0 0 0
2969 196 1 0.2999010118002193 -0.8893435241546472 9.051549939452997 -24.145208071688103 0 0 0
2970 196 2 0.1093318120913174 -2.31412746198729 10.286884592998092 -22.997173230345307 0 0 0
2971 196 1 0.1192751527278557 -2.970470109478267 9.8439681089534 -22.219879160825275 0 0 0
2972 196 2 -0.2062707882759074 -1.0301477729372883 11.003201562308286 -22.4428945719218 0 0 0
2973 196 1 0.09127635900876198 -0.3882160678198305 10.319710451364134 -21.837410878276234 0 0 0
2974 196 1 0.09871699510620575 -0.3758363754710052 11.377864899266063 -23.26756420073998 0 0 0
2975 196 1 0.08416461974971556 -1.2922433490053127 11.87570193077906 -21.79471076576923 0 0 0
2976 196 2 0.5689576253441655 -3.160269421002867 11.327151231617028 -23.878774109268342 0 0 0
2977 196 4 -0.5092052877349291 -4.070677481080474 11.884174306050753 -23.315100196720245 0 0 0
3069 203 1 0.3042702309306429 -6.0174749259696 10.83664064563796 -21.909210180985465 0 0 0
3102 205 1 0.1436396608609759 -4.8254959862013 6.363997744355956 -20.35422606179405 0 0 0
3104 205 2 -0.210543132465515 -2.7641609045545135 7.0793727794898285 -19.97884411132286 0 0 0
3105 205 1 0.08657844824718704 -1.7588304683536529 6.676012052982743 -19.71017335193592 0 0 0
3106 205 1 0.09101845270208156 -2.672822608602775 7.522097232413339 -20.999677688523324 0 0 0
3107 205 1 0.08268262666214328 -2.9798117626605607 7.921223167998068 -19.28020974689328 0 0 0
2889 191 2 0.5533607603269428 2.7465977369905645 11.722577386592782 -19.17813087284912 0 0 0
2890 191 4 -0.5005145418609174 1.5874646115528972 11.380597663074413 -19.162170929228513 0 0 0
2891 192 3 -0.5858475790053682 3.495575089599911 11.808964179750982 -20.296477286554694 0 0 0
2892 192 1 0.2153067317613548 4.482727172597533 12.025194101748239 -20.18477795187808 0 0 0
2893 192 2 0.1013369863656436 2.8989849456040964 11.649007976992097 -21.601116441948275 0 0 0
2894 192 1 0.1010506670955036 1.8079546203567516 11.773511435398806 -21.44154118443238 0 0 0
2911 192 2 0.5612283905733298 3.259035081593048 10.160472070477942 -22.144401086649953 0 0 0
2912 192 4 -0.4828002564556307 4.200973983512443 9.998073023623716 -22.86999272275927 0 0 0
2913 193 3 -0.5638054738687973 2.4380129031145805 9.180288192521607 -21.698037742514252 0 0 0
2914 193 1 0.2396424644557745 1.8318933576828296 9.535094357903832 -20.962101400285913 0 0 0
2915 193 2 0.09906242548320296 2.239884669394369 7.908766273790915 -22.43182065692623 0 0 0
2916 193 1 0.1212933899091722 3.2541110155429425 7.459869340675861 -22.43993951567909 0 0 0
2917 193 2 -0.1836026128916775 1.2620928933837527 7.104441923529046 -21.53773294972411 0 0 0
2918 193 1 0.07291388617117579 0.2447162852859528 7.559506894222001 -21.528764829117158 0 0 0
2919 193 1 0.08919299029194189 1.5739049636310793 7.162393280236611 -20.470235634290578 0 0 0
2923 193 2 0.571457391544781 1.6702679112185326 8.144674708698409 -23.902524636019777 0 0 0
3027 200 2 -0.2136446103913809 -13.432530114153407 12.252553930603757 -23.705088286093705 0 0 0
3030 200 1 0.07249894814897877 -12.971276310265717 13.26940157765474 -23.618198238367288 0 0 0
2895 192 2 -0.1322193633794959 3.53479730476344 12.763384338602405 -22.52144783941893 0 0 0
2896 192 1 0.09731120239232201 3.4258646359180482 12.51288714073655 -23.60392890009933 0 0 0
2897 192 1 0.09797322374391293 4.634450846514988 12.870772226516396 -22.35278692262372 0 0 0
2898 192 2 -0.1364799727916507 2.809579207423301 14.120109167670172 -22.229159184299135 0 0 0
2899 192 1 0.1093442007176122 2.4907897819331546 14.219098073323922 -21.161938207258043 0 0 0
2900 192 1 0.08258939453450945 1.8731453202132022 14.214735999670612 -22.82941929992509 0 0 0
2901 192 2 -0.1525996498768226 3.8918089454733824 15.19286617307069 -22.627326418547874 0 0 0
2902 192 1 0.07916444002337342 4.557631773345747 15.394347144143012 -21.75350405971 0 0 0
2903 192 1 0.07044684324376585 4.550042503817945 14.773744648911263 -23.419808590405403 0 0 0
2904 192 2 0.009245944971928648 3.2195960039212284 16.491167277448692 -23.152493226169607 0 0 0
2905 192 1 0.08620493897458649 2.554554807391827 16.356483601059463 -24.032760989440487 0 0 0
2906 192 1 0.07721643264769164 3.919558693246074 17.332555999381995 -23.3358283495096 0 0 0
2907 192 3 -0.656742471937682 2.2658692093145456 16.982691866305363 -22.012983760793592 0 0 0
2908 192 1 0.2050143092445468 1.8159498371757294 17.94232934467332 -22.102535945540065 0 0 0
2909 192 1 0.2117792979916795 1.4055578877144281 16.384695877052454 -21.84056374218697 0 0 0
2910 192 1 0.2111721145178387 2.6471153696175405 17.036585123038403 -21.022459545421476 0 0 0
3781 250 1 0.1155396790462192 -6.535022307201563 -28.029192182869753 -12.30695440116621 0 0 0
3789 250 1 0.2184960224582981 -8.859113743940611 -29.209160205657575 -12.350898667905051 0 0 0
4569 305 2 -0.1500179693854659 -8.07235417082334 -25.150907076901362 -13.25723631417641 0 0 0
4570 305 1 0.06402382954419517 -8.904011632576601 -24.94294232157443 -12.542591972814034 0 0 0
4571 305 1 0.1060149846952927 -7.445746430989691 -25.938626278604055 -12.773380947373038 0 0 0
4572 305 2 -0.1682011871733516 -8.700652704295873 -25.69250166626333 -14.585463699360465 0 0 0
4573 305 1 0.07176815365392376 -9.153263328970507 -24.862006107198358 -15.173073949856853 0 0 0
4574 305 1 0.06416593675573486 -9.533628361609457 -26.378486650008846 -14.324930134758262 0 0 0
4575 305 2 0.6203683021766717 -7.641826897246055 -26.492265533797582 -15.446808091232768 0 0 0
4576 305 4 -0.4865165432504222 -7.0854768751379895 -27.456478530155803 -15.012243749016942 0 0 0
4577 305 3 -0.6616085060988981 -7.473476899413845 -26.021771579300317 -16.70527291862152 0 0 0
4578 305 1 0.2832133761893081 -7.808710556593292 -25.166772839765336 -17.163796254713457 0 0 0
4579 305 1 0.3084590851845833 -6.805627085432245 -26.37891614667839 -17.39447429314964 0 0 0
4545 303 4 -0.5134345745080384 -4.366120069282261 -25.762101347311805 -17.717772242567726 0 0 0
4549 304 1 0.1190376723210969 -4.070559358360992 -24.536004469651605 -15.948691177034036 0 0 0
4566 305 1 0.248448708099601 -5.398931623354937 -24.765021423029378 -14.00753719055456 0 0 0
4490 299 1 0.1256858565100865 -13.055124881606659 -21.023836638950417 -12.74670705763832 0 0 0
4491 299 2 0.1612453080989682 -12.192755559587116 -18.97993539857202 -12.706148944513888 0 0 0
4493 299 4 -0.5562780919121537 -12.843529669709374 -18.602072749415026 -13.9369280497623 0 0 0
4502 300 1 0.276638440464906 -12.149379455219394 -20.767546383898857 -15.151011457211972 0 0 0
4489 299 2 0.1235567902135924 -12.050825193396676 -20.55255360665925 -12.604672036745125 0 0 0
4495 299 2 -0.2122539289839028 -10.785153431561737 -18.28874189146793 -12.627313354372182 0 0 0
4496 299 1 0.09988434815722473 -10.165839347284853 -18.572711957948954 -13.506056685488588 0 0 0
4499 299 2 0.5388606865857146 -10.919203469469885 -21.095977443571613 -13.561376769585557 0 0 0
4500 299 4 -0.5622308484559819 -9.797856513861726 -21.382198049797207 -13.13519927983238 0 0 0
4501 300 3 -0.5794000371275976 -11.243278865237828 -21.129791605852976 -14.852690638364876 0 0 0
4503 300 2 0.1119200198368598 -10.258269382350186 -21.696042679935427 -15.764729179103018 0 0 0
4504 300 1 0.1158574239158628 -9.408671205419484 -22.02955972074167 -15.117984144679461 0 0 0
4505 300 2 -0.2096701795192948 -11.022203509222264 -22.86114761810805 -16.49384196582104 0 0 0
4506 300 1 0.1049991854803954 -12.000230623941906 -22.522707461080923 -16.914811980493678 0 0 0
4507 300 1 0.08615994629213197 -10.427290392403235 -23.298069476417187 -17.33154404911068 0 0 0
4508 300 1 0.06264133962330334 -11.263255926954722 -23.699043951682317 -15.794522464987464 0 0 0
4509 300 2 0.5567965924903279 -9.82942787699493 -20.581695984709597 -16.82018073783795 0 0 0
4510 300 4 -0.4962127393851225 -10.635869725933462 -20.034622934534568 -17.507563626001065 0 0 0
4511 301 3 -0.5864278205409283 -8.452227344365966 -20.39080496407944 -16.773757931318173 0 0 0
4512 301 1 0.3142504453197326 -7.840930038431688 -21.100172209022503 -16.336738010325913 0 0 0
4513 301 2 0.1183900831405442 -7.917895627475797 -19.423638084947953 -17.71885570088623 0 0 0
4515 301 2 -0.06430800383316852 -7.1752708698299905 -18.31223568803004 -16.96575495629873 0 0 0
4516 301 1 0.1129906923130895 -6.138256629177022 -18.64659266190055 -16.737889039207094 0 0 0
4522 301 1 0.09142490798049478 -7.93868779691765 -18.61382544116097 -14.867687714891282 0 0 0
4564 304 4 -0.5436100954121103 -6.779946097859045 -22.579307191431212 -15.86362245198096 0 0 0
4567 305 2 0.1115679487768957 -7.2629211475492355 -23.81248780636423 -13.528373814513943 0 0 0
4568 305 1 0.1180594792018912 -7.84612132741461 -23.071657924808488 -14.143050192642878 0 0 0
4580 305 2 0.5313449033027338 -6.7575167872178525 -23.18267766188967 -12.13783071409043 0 0 0
4583 306 1 0.3215178106648208 -8.2358936368308 -21.717608742830812 -12.426211677661216 0 0 0
4588 306 1 0.0855185399670437 -6.897208010137757 -19.442757644401922 -12.393504429797913 0 0 0
3718 246 1 0.09076472539916093 -1.652893020649247 -18.32114709537926 -12.673687464949241 0 0 0
4546 304 3 -0.552498241605088 -4.70049371229036 -23.529692740091086 -17.61348572552903 0 0 0
4548 304 2 0.1082875419127461 -4.550674496102169 -23.5572348048405 -16.174364687240104 0 0 0
4550 304 2 -0.1411266715806208 -3.6366605453828362 -22.306599528892214 -15.853926437864988 0 0 0
4551 304 1 0.06547201525193952 -3.7768937525738178 -21.997935942128617 -14.790401991558738 0 0 0
4552 304 1 0.1179561549694568 -3.9324895262246846 -21.41099203051224 -16.45667754396044 0 0 0
4553 304 2 -0.076398597089988 -2.126155926958331 -22.670536189608345 -16.060326730958483 0 0 0
4554 304 1 0.08963523328841914 -1.851659479668387 -23.461338108574843 -15.325692702761286 0 0 0
4555 304 2 -0.2020311701812685 -1.6440922921080174 -23.17489551098243 -17.46982571897307 0 0 0
4557 304 1 0.07563749429583361 -0.5814403628710193 -23.51978706962877 -17.42479978921744 0 0 0
4558 304 1 0.1025891379023805 -2.2515053756209285 -24.036998347313563 -17.83686539719495 0 0 0
4559 304 2 -0.2185610587696228 -1.3545529791862398 -21.330703269265793 -15.768104891398721 0 0 0
4560 304 1 0.07876055063172259 -0.34804540806066636 -21.32108771526264 -16.24441154074668 0 0 0
4561 304 1 0.07782591402458666 -1.9080894251522411 -20.444534816915493 -16.158563576101752 0 0 0
4562 304 1 0.0686678912156491 -1.209409663743349 -21.17666582631462 -14.673459637122946 0 0 0
4563 304 2 0.5683054114820678 -5.9701081745995115 -23.393341819850093 -15.443350844432024 0 0 0
4565 305 3 -0.5976163823654457 -6.098804181684617 -24.10592697283912 -14.324091795164719 0 0 0
4589 306 2 -0.07627834754345192 -4.948770774691657 -20.384249657430107 -12.735387013347607 0 0 0
4590 306 1 0.1078041522835937 -5.247329877022006 -21.292959145295494 -13.30361720531328 0 0 0
4591 306 2 -0.2245214014158118 -4.596698173109451 -19.248080006723384 -13.76658380786228 0 0 0
4592 306 1 0.08073316079430606 -5.442698174945889 -19.057902630932237 -14.467127418484152 0 0 0
4593 306 1 0.06908296281537372 -4.3517807764048 -18.276401331772075 -13.27933199777241 0 0 0
4594 306 1 0.07042779341980956 -3.715094567874893 -19.509981487904145 -14.398353947513401 0 0 0
4598 306 1 0.06929165398685191 -2.7709967055867297 -20.85829594119241 -12.605358228423677 0 0 0
3707 246 2 -0.07740861681423317 1.1343373012052318 -18.70316804249414 -12.376280800396673 0 0 0
3708 246 1 0.09486441657354833 2.1688679833449704 -18.366732807277263 -12.131944033400533 0 0 0
3709 246 2 -0.2210923112583197 1.2060685929556083 -19.808764016696497 -13.484768605400467 0 0 0
3710 246 1 0.0721830250910992 1.0499479364240627 -19.39830540050995 -14.512165873249142 0 0 0
3711 246 1 0.09533420641782833 2.2099142271192136 -20.29571976315332 -13.499081192034472 0 0 0
3712 246 1 0.07725440467921812 0.45408347057665743 -20.621721064202646 -13.316370558541559 0 0 0
4494 299 1 0.3068072586754036 -12.932869904099663 -17.644720963424383 -13.83131965130014 0 0 0