LAMMPS data file via write_data, version 23 Jun 2022, timestep = 16

3720 atoms
7 atom types

-40.0309 40.0309 xlo xhi
-40.0309 40.0309 ylo yhi
-40.0309 40.0309 zlo zhi

Masses

1 1.00794
2 12.0107
3 14.0067
4 15.9994
5 32.065
6 24.305
7 55.845

Atoms # full

1932 121 1 0.2030072513711317 -12.84478672170082 1.0106076078775215 -27.948518825055725 0 0 0
1970 124 2 -0.138859278593494 -2.400076751389018 -9.56061727371155 -23.871185619306186 0 0 0
1971 124 1 0.1155371279135152 -2.941312712517297 -9.402997592358576 -24.82948184416128 0 0 0
1972 124 1 0.1005014317619513 -2.926565852032559 -10.39465583412726 -23.354858423511963 0 0 0
1973 124 2 -0.1769623096434028 -0.9686387087923309 -10.081692272345366 -24.14943638049033 0 0 0
1974 124 1 0.08915154929295843 -0.3465066411926768 -10.071314292117481 -23.232498590801594 0 0 0
1975 124 1 0.08023526461677552 -0.4485089209380386 -9.48132895541384 -24.918507561909216 0 0 0
1976 124 2 0.6412471246982692 -1.1030321458674954 -11.618449661287505 -24.721048651650115 0 0 0
1977 124 4 -0.4936843057804411 -1.0522912444779422 -12.571182682068928 -23.911684479445295 0 0 0
1978 124 4 -0.4486721073589762 -1.4036765096475456 -11.740526004885702 -25.914700681665945 0 0 0
2835 177 3 -0.6811586569092183 1.3408757344301254 -12.68134657435658 -22.36213379660794 0 0 0
2836 177 1 0.2146690318122572 1.6695631985988735 -12.397382336613633 -23.328172109172147 0 0 0
2837 177 1 0.2519101533411102 1.5738055862193885 -13.714138149825805 -22.381937324267973 0 0 0
2838 177 1 0.2956482264375548 0.28226655930829436 -12.702036635408366 -22.512306204422746 0 0 0
2806 175 2 -0.2292083273477962 6.398036400522316 -14.510239778565406 -21.871983916320996 0 0 0
2807 175 1 0.06693652557209431 6.453538236653485 -13.419810394824868 -21.634795751779645 0 0 0
2808 175 1 0.08947703259989354 7.252681175049174 -14.764413563450125 -22.545191120530568 0 0 0
2809 175 1 0.07978201862764385 5.458869972580417 -14.681273224843144 -22.455555511630983 0 0 0
2830 177 1 0.06768587961837194 3.682055032002228 -11.221155234052327 -22.196901798327847 0 0 0
1937 122 3 -0.5928230575301846 -7.257533048064186 -3.1087620264865836 -25.30068938111342 0 0 0
1938 122 1 0.2260633160794387 -7.990487227212571 -3.5666359861114785 -24.766526171903365 0 0 0
1939 122 2 0.05317512431562608 -6.569128174640722 -3.7632307239454574 -26.415919887877244 0 0 0
1940 122 1 0.0625267049285097 -7.066696258896131 -4.737039431219379 -26.600249778111305 0 0 0
1941 122 1 0.1086378268456365 -6.663392328922215 -3.09570567304454 -27.292365810177344 0 0 0
1942 122 2 0.5693585449585862 -5.0584866248420255 -4.041362322533372 -26.014439399008044 0 0 0
1943 122 4 -0.4996300162037843 -4.221468300457127 -3.9453605690473905 -26.876678517993327 0 0 0
1944 123 3 -0.5620310096255002 -4.9073456955833885 -4.564024487840265 -24.77848009904809 0 0 0
1945 123 1 0.2914123779000495 -5.705049722930053 -4.671875632736659 -24.157566261124607 0 0 0
1946 123 2 0.0967457459751395 -3.5634968426743465 -4.8553248563127696 -24.342113208544042 0 0 0
1950 123 1 0.106993406719826 -3.8323788361078637 -3.559940055061544 -22.54514325402431 0 0 0
1964 123 2 0.5371844709731562 -3.6957559036039624 -6.230699578131472 -23.52006656963903 0 0 0
1965 123 4 -0.5225159771428045 -4.63651483559 -6.406318651897912 -22.779248503446883 0 0 0
1969 124 1 0.1116960773506885 -3.5766456974242398 -8.372718767252499 -22.473933960974925 0 0 0
1947 123 1 0.10649949754812 -2.943951243854493 -4.945074739543407 -25.258233511427058 0 0 0
1948 123 2 -0.1448389815556622 -3.086639669197517 -3.705701166017043 -23.356538733508465 0 0 0
1949 123 1 0.09797512674931924 -2.174529388778349 -4.0539693825605765 -22.81630402100817 0 0 0
1966 124 3 -0.6007925758867596 -2.680038544134182 -7.081375759717308 -23.762406791508052 0 0 0
1967 124 1 0.2075344717223943 -1.9906104392544879 -6.7717272278624145 -24.4496212870188 0 0 0
1968 124 2 0.1024367382396884 -2.5803958652186116 -8.271445746657728 -22.959988923725092 0 0 0
1979 124 2 0.5119346233043476 -1.398078990985207 -8.15434276828785 -21.890470269122204 0 0 0
1981 125 3 -0.5565128235183311 -0.5203304384929887 -7.141216186539978 -22.016864194235993 0 0 0
1982 125 1 0.2485851815914676 -0.6841687575775492 -6.515968281798065 -22.809971146398166 0 0 0
1988 125 2 0.0001974940652088777 2.274195223877387 -6.911092439141708 -22.77532783768588 0 0 0
1989 125 2 -0.07780086662239108 3.0026269183916217 -5.679629957908197 -22.849055169641144 0 0 0
1993 125 2 0.2438594078342093 3.1218155754441597 -5.96445272871324 -25.295483065520195 0 0 0
1996 125 2 -0.103297124346605 1.9913725823205417 -7.676964704571851 -23.95037741237034 0 0 0
1997 125 1 0.07199320120910833 1.4301029520958202 -8.627125684733778 -23.868229226557624 0 0 0
1998 125 2 -0.08002390848783975 2.445525425085361 -7.219796001302521 -25.194063002533333 0 0 0
1999 125 1 0.1060051754677008 2.2994664220965246 -7.832345936995274 -26.109735141259417 0 0 0
1990 125 1 0.09237577673412621 3.256952585622474 -5.1276998077141664 -21.92816592347524 0 0 0
1991 125 2 -0.1030710902382505 3.3814280569785287 -5.210872631259394 -24.111023636417922 0 0 0
1992 125 1 0.07286359383157698 3.9135906536959486 -4.244674343689187 -24.21339032327032 0 0 0
1994 125 4 -0.5386502455506752 3.558370908642964 -5.441803390485249 -26.532623377498126 0 0 0
1995 125 1 0.2800106345456627 3.7683119688407856 -4.509595540473679 -26.280809471733747 0 0 0
2027 127 1 0.05651698417890288 5.377458971632174 -3.3309533538345923 -21.785405245824123 0 0 0
1922 121 2 -0.1514223362975173 -10.139286421599602 0.3672009560420672 -24.13468148642494 0 0 0
1923 121 1 0.1115850947176454 -9.921743346675465 0.9534399168267057 -23.21448889622062 0 0 0
1924 121 1 0.07708646656617203 -10.642662395306427 -0.5729594074110897 -23.818208011457298 0 0 0
1925 121 2 -0.1332268208834925 -11.136887781130934 1.1752007089844254 -25.041466820676906 0 0 0
1926 121 1 0.09645173689001091 -12.064439039299431 1.4153752312349879 -24.467556948720834 0 0 0
1927 121 1 0.09138406992175817 -10.708178691785491 2.1643486585381346 -25.323910372457718 0 0 0
1928 121 2 0.001895689249402276 -11.452247699988648 0.32623672648595853 -26.309998338508304 0 0 0
1929 121 1 0.07354667001790256 -11.9385222630416 -0.6630298697446592 -26.166839287970195 0 0 0
1930 121 1 0.07363055842057718 -10.668449431512617 0.29562267390609104 -27.09579886440147 0 0 0
1931 121 3 -0.6674942974305969 -12.539317833622892 1.2212713676659004 -26.957466991923184 0 0 0
1933 121 1 0.2070431381521979 -13.460609110388111 1.3664402704464924 -26.451995325300146 0 0 0
1934 121 1 0.2040025365047159 -12.191693284309176 2.216942257537545 -27.04438925155914 0 0 0
1894 119 4 -0.5290712803598484 -4.354077872711666 1.4603244709957388 -21.79965548790324 0 0 0
1913 120 2 0.5577963904714668 -6.79579233057746 -1.4057151363566247 -22.06559559571961 0 0 0
1914 120 4 -0.5118201979512274 -6.8742518330535365 -2.60564325067283 -22.121964082075156 0 0 0
1915 121 3 -0.5491054447248025 -7.425717779508439 -0.572757089760081 -22.92778075145598 0 0 0
1916 121 1 0.2736892734616288 -7.321143064310417 0.4242108568271181 -22.753644650376607 0 0 0
1917 121 2 0.1020035727877745 -8.049743161003356 -1.0845002721579409 -24.150552545090733 0 0 0
1918 121 1 0.08786521834875995 -8.718878442118063 -1.909162043291722 -23.846245316433485 0 0 0
1919 121 2 -0.1479619960469758 -8.819411137091006 0.056958582928684116 -24.921432448053704 0 0 0
1920 121 1 0.06571272952928722 -9.0813817280727 -0.3100962659061593 -25.938569906766315 0 0 0
1921 121 1 0.1150989758526252 -8.221913510814048 0.986359156016434 -25.079642843837224 0 0 0
1935 121 2 0.5685509953182371 -6.974484674619226 -1.7983034478116582 -25.105770881435546 0 0 0
1936 121 4 -0.4943173437207998 -6.113836389380738 -1.1584385143038218 -25.633928782337875 0 0 0
1952 123 1 0.1417304748917517 -3.5786789127445005 -2.059369385004298 -24.796444115834454 0 0 0
1955 123 1 0.1027770257729406 -3.488715161427223 -0.7717300933676872 -22.6033293080727 0 0 0
1951 123 2 -0.132046287727421 -2.783746012022929 -2.3410281760816396 -24.07129084815809 0 0 0
1953 123 1 0.08886845925372139 -1.9003263881237973 -2.4861055484371244 -24.733986475507393 0 0 0
1954 123 2 -0.1349244145798453 -2.560264524828817 -1.1032309487938374 -23.118584270604153 0 0 0
1956 123 1 0.1011404200096496 -1.8581092276618656 -1.4056501156836272 -22.307696689782546 0 0 0
1957 123 2 0.0614665456613876 -2.041823493803125 0.13854959869420636 -23.9269075099717 0 0 0
1958 123 1 0.1235968301375369 -1.9803514062002825 1.1163380843094162 -23.388801758461426 0 0 0
1959 123 1 0.09666240731024744 -2.516080395105799 0.28931207387184404 -24.919268973557127 0 0 0
1960 123 3 -0.6827109725634218 -0.607981457265169 -0.23594006597778208 -24.235511344151096 0 0 0
1961 123 1 0.2139655909652334 -0.3331611921387523 -0.2281523150358854 -25.238187821238103 0 0 0
1962 123 1 0.3416361504971969 0.25349671807983476 0.40105379768722904 -23.693443724951468 0 0 0
1963 123 1 0.2422267804150965 -0.3530584357453064 -1.2164049333186955 -23.974994676501147 0 0 0
2025 127 1 0.3680917233876055 3.0465886107024263 -0.6434739542938673 -21.884422949041785 0 0 0
2074 130 4 -0.5742419298439851 1.2987531895535425 -1.096843662261267 -21.553174445895323 0 0 0
2075 130 4 -0.5583768416731361 0.8519513030923241 0.9239616481106622 -22.506783134064566 0 0 0
2024 127 4 -0.5779714112616723 3.9238318322213415 -0.23610290950123608 -21.766036956675187 0 0 0
2026 127 2 -0.2141657471931342 4.5777113081433125 -2.6256051960589737 -22.077871060240565 0 0 0
2028 127 1 0.1128625825908281 3.600174599075163 -3.121152844483683 -21.923712012237274 0 0 0
2029 127 1 0.08881080886433182 4.699105532949765 -2.3684420464458427 -23.148660000564295 0 0 0
2056 129 1 0.120955939802409 5.692146681950517 2.8151151477736844 -21.497220674621992 0 0 0
1874 118 4 -0.563179696050734 -10.857431202649105 3.8721595799680557 -21.904474660628566 0 0 0
1875 118 1 0.3304743687920685 -10.01714999481583 3.8155300794348808 -22.38697686274636 0 0 0
1877 118 4 -0.5409655383687401 -7.993065735036176 3.1079208937639895 -21.9945038946571 0 0 0
2058 129 2 -0.1661177047006157 4.679392992751504 4.600762602926123 -22.124534102578796 0 0 0
2059 129 1 0.08921130561415491 4.463097735070547 5.613427485591282 -21.729031113152185 0 0 0
2060 129 1 0.1170286372242803 3.708928054700406 4.092721941038522 -22.31690863143501 0 0 0
2061 129 2 0.6647307091819923 5.460712692855042 4.782826237256659 -23.536228803747644 0 0 0
2062 129 4 -0.4431620192783021 4.955482371514286 5.618820958705153 -24.289204829339308 0 0 0
2063 129 4 -0.448934135686916 6.4460358522853625 4.109436343879881 -23.836736380970294 0 0 0
2770 172 4 -0.462099104121974 1.6163994220313846 -15.870368378120837 -18.46364372148313 0 0 0
2764 172 1 0.07991902048084275 4.580421849420905 -15.820157712952902 -17.225228319310705 0 0 0
2786 173 2 0.5227504909362396 8.129523163636646 -17.9933041181916 -15.636827729374414 0 0 0
2788 174 3 -0.5655173458414686 7.524998672559323 -18.17719588114902 -16.909090030042346 0 0 0
2789 174 1 0.2330251913663415 6.551440349593812 -17.94966231934787 -17.0505044031764 0 0 0
2790 174 2 0.1051269286673217 8.397727150185986 -18.619179414969153 -17.995139064880675 0 0 0
2792 174 2 -0.1970778247106985 7.553996986675203 -19.747583510234055 -18.671944356372293 0 0 0
2793 174 1 0.09773914202050371 8.117086628156391 -20.26681666406104 -19.482451060623717 0 0 0
2794 174 1 0.07566781845466836 7.260795616638285 -20.51626073780093 -17.91986866234384 0 0 0
2795 174 1 0.1000665383792194 6.614612673164305 -19.337442731291695 -19.11281151940671 0 0 0
2796 174 2 0.5741483413983928 8.55653900637455 -17.439251582165607 -19.063803361657197 0 0 0
2798 175 3 -0.5509193723450146 7.881536916938766 -16.288297276327448 -18.844252236481495 0 0 0
2799 175 1 0.2849473539103234 7.497906356469641 -16.186834821846837 -17.902706495615252 0 0 0
2801 175 1 0.1236244285272898 8.607738580050214 -15.557454539019147 -20.619640276649235 0 0 0
2802 175 2 0.1522590693663226 6.402310982689166 -15.4350865515336 -20.60778477121531 0 0 0
2804 175 4 -0.5360568945023305 6.215905656009816 -16.780188068217 -21.076761266968223 0 0 0
2805 175 1 0.2952132721082628 5.274765330802536 -16.8218544112431 -21.27947444974047 0 0 0
2791 174 1 0.1296322563773568 9.34291643015706 -18.98996075557302 -17.54485256261428 0 0 0
2797 174 4 -0.4808243047157703 9.22211366827155 -17.668383601562482 -20.041544129106637 0 0 0
2883 181 1 0.2350704609455476 -4.059641462983854 -9.72526193304343 -17.800790793522054 0 0 0
2884 181 2 0.1080055503857677 -5.853282810042933 -9.67605048164844 -16.39607603962334 0 0 0
2886 181 2 -0.2284839204724877 -6.448113330181331 -10.936186397031866 -17.124483400262747 0 0 0
2887 181 1 0.0788366720876819 -5.7119347255567465 -11.76970781994608 -17.218125451797246 0 0 0
2888 181 1 0.07054285516756563 -7.330520031350752 -11.315895903591946 -16.563571627830054 0 0 0
2889 181 1 0.07369289967819692 -6.8032703749124 -10.707019019250112 -18.1588540151453 0 0 0
2766 172 2 -0.1832362167797111 2.941507030336117 -14.362084765553561 -17.035843992684594 0 0 0
2767 172 1 0.06981758256777171 2.829749955535508 -13.262819510306924 -17.087023759013455 0 0 0
2768 172 1 0.08420682551481824 2.262239659145298 -14.731280165265607 -16.240657956738257 0 0 0
2769 172 2 0.6370791023877926 2.43050395007949 -14.93798511786088 -18.48145662894125 0 0 0
2771 172 4 -0.5174661032619464 2.8998080609371595 -14.441528332449979 -19.513450139423995 0 0 0
2832 177 2 0.0292875304661885 1.8780144294449561 -11.882042622826804 -21.14204400794102 0 0 0
2833 177 1 0.07592335021956467 1.3713714218986437 -10.906419520581776 -21.238044317416563 0 0 0
2834 177 1 0.1147242143028537 1.5543662452412268 -12.447290814882518 -20.251462424779735 0 0 0
2852 179 3 -0.4530035971871371 1.0685201900967318 -9.593202295939436 -17.007478077374742 0 0 0
2853 179 2 0.01642109761618808 1.4846325923270152 -10.866484507989002 -16.444467752432804 0 0 0
2854 179 1 0.0835894842333848 2.27824120390637 -11.30618825957159 -17.100433082958055 0 0 0
2855 179 1 0.08621676569445415 1.9102322226187305 -10.747466860056207 -15.414684873610103 0 0 0
2856 179 2 0.09938537599495018 -0.1703641897474893 -9.64391098489566 -17.72817845123208 0 0 0
2858 179 2 -0.1386835431005861 -0.4161478532308932 -11.211589185166787 -17.876823786651848 0 0 0
2859 179 1 0.07974060607021519 0.15389538160214966 -11.580432824376933 -18.754149653594542 0 0 0
2860 179 1 0.07947641942975231 -1.478036097840649 -11.487292288383166 -18.048808339823 0 0 0
2861 179 2 -0.1338428301607196 0.14095213288521424 -11.695066660676193 -16.5030760315163 0 0 0
2862 179 1 0.07716159729533997 0.2911718390631393 -12.80303899905208 -16.42505723459731 0 0 0
2863 179 1 0.1064467133535304 -0.5636603253774947 -11.399639305347701 -15.687576761071965 0 0 0
2751 171 1 0.1287604159589996 6.836953250726875 -11.463919139671875 -15.969270747750508 0 0 0
2760 172 1 0.2499603891465081 4.570701608085986 -12.668297701712056 -15.796037573751995 0 0 0
2763 172 2 -0.1355122906038167 4.412613282196898 -14.798196590455145 -16.82217894378327 0 0 0
2765 172 1 0.1394384019693298 5.084358051970928 -14.136097237601403 -17.419670376305337 0 0 0
2800 175 2 0.1128207303834367 7.802075136850028 -15.301251164350155 -19.887325044149126 0 0 0
2803 175 1 0.0959683646161834 5.563628664644842 -15.065920528384032 -19.950603763522174 0 0 0
2810 175 2 0.5216112939111202 7.9428781310766094 -13.895926254889828 -19.127568071752947 0 0 0
2811 175 4 -0.4990567277451721 7.395283829848751 -13.745214371493894 -18.06046628509179 0 0 0
2812 176 3 -0.5785278833711948 8.554189815221676 -12.918775484811029 -19.826374044392495 0 0 0
2813 176 1 0.206767929345034 8.923541987794742 -13.19560707234139 -20.74075643521388 0 0 0
2814 176 2 0.04409410777118614 8.96434529969954 -11.693708984005612 -19.149780572106884 0 0 0
2815 176 1 0.09505016935415686 8.975727528804006 -11.905819952839753 -18.06286932353435 0 0 0
2817 176 2 0.5423988349472607 7.961992722336167 -10.478344526917068 -19.45610321124116 0 0 0
2818 176 4 -0.4910346021911981 8.336207000582105 -9.596922696046194 -20.171740396520395 0 0 0
2819 177 3 -0.5703181101590101 6.8378984699292715 -10.518520308937918 -18.714659158538478 0 0 0
2820 177 1 0.2759846723763982 6.700032081497261 -11.29851464305298 -18.069053495120357 0 0 0
2821 177 2 0.09682011274810851 5.760951580481987 -9.568504706944692 -18.911972768923405 0 0 0
2823 177 2 -0.1557904109026248 4.961407703598814 -9.987127599009845 -20.218827702181454 0 0 0
2824 177 1 0.1098077038804547 5.703766568161083 -10.152615427286321 -21.02894599386162 0 0 0
2826 177 2 -0.1434835767212422 4.114442672649383 -11.278716261288308 -19.992638261741174 0 0 0
2827 177 1 0.08938881615626811 3.305172295859112 -11.153387776461358 -19.249845179006883 0 0 0
2828 177 1 0.1161078613057615 4.78729797458594 -12.081680896719831 -19.652899519868793 0 0 0
2829 177 2 -0.1549487176235712 3.4317335545897216 -11.827946023855723 -21.318644307333518 0 0 0
2831 177 1 0.1057385946551608 3.8187447378012767 -12.84157146198058 -21.498445754438816 0 0 0
2839 177 2 0.5341167910568155 4.830305261049118 -9.66624655626936 -17.611092550481086 0 0 0
2840 177 4 -0.5713092332851348 4.842170156250161 -10.679988912721944 -16.96425236252971 0 0 0
2816 176 1 0.08718327019985095 9.981091285686857 -11.477095215240798 -19.546149811874226 0 0 0
2945 184 2 -0.1389713187615184 -9.99488157161311 -6.84599958273878 -15.457135237121658 0 0 0
2946 184 1 0.09067749434765504 -9.396679592320208 -6.388822526441766 -16.28040559637829 0 0 0
2947 184 1 0.08360007840304215 -9.905297718700638 -7.951988609796095 -15.587909533533853 0 0 0
2948 184 2 0.02671122292964171 -11.487269960661887 -6.478096717870341 -15.622947214353848 0 0 0
2949 184 1 0.08932333983006216 -11.715842720363906 -5.399024143476163 -15.747808117366164 0 0 0
2951 184 3 -0.6731226103851229 -11.878843052182004 -7.09249707421615 -17.006326936442367 0 0 0
2952 184 1 0.1997446843753352 -11.555984691668552 -6.559872475671307 -17.860181598818446 0 0 0
2953 184 1 0.1977253191500531 -11.657186296882529 -8.0870312964537 -17.302799890955292 0 0 0
2954 184 1 0.2052444432907641 -12.92472960747653 -7.083191276529427 -17.153468089070106 0 0 0
1863 117 1 0.07796006927960318 -5.861347775408872 -3.6078098961235554 -15.648280487585586 0 0 0
2868 180 2 0.1144891643587233 -3.105539533528487 -7.265320742679564 -17.5800343690252 0 0 0
2870 180 2 -0.09511972995271181 -3.551923752108784 -6.431546609721627 -18.83602286851896 0 0 0
2872 180 2 -0.1807513601266388 -4.450041288946445 -7.090506375590179 -19.936203311267338 0 0 0
2873 180 1 0.08990749898466108 -5.408682804841841 -7.561388038321356 -19.58662611238735 0 0 0
2874 180 1 0.139973762336622 -4.7347648752067375 -6.286378101499913 -20.662800294600167 0 0 0
2875 180 1 0.09384744565409996 -3.889578608499051 -7.882812657096902 -20.491164710341476 0 0 0
2876 180 2 -0.2124518423240263 -4.269664144099778 -5.163474690735418 -18.269861771257226 0 0 0
2877 180 1 0.0727071391407566 -4.201271420273121 -4.299250355737709 -18.972408362058943 0 0 0
2878 180 1 0.1066140917398296 -5.350963612582634 -5.366145493654752 -18.08197337465616 0 0 0
2879 180 1 0.07297758923382071 -3.824784445380333 -4.829450127534106 -17.29971516941401 0 0 0
2880 180 2 0.5416137027841674 -4.358156862791266 -7.94247597997859 -16.8469472617642 0 0 0
2881 180 4 -0.5535573506205138 -4.999689791137997 -7.20766309594425 -16.11576090291769 0 0 0
2882 181 3 -0.5740656168678501 -4.6719255000621756 -9.240416163532714 -17.135083857973548 0 0 0
2885 181 1 0.1112089189172768 -6.534611385810142 -8.801521132043304 -16.43575340203621 0 0 0
1980 124 4 -0.560525607204016 -1.3544692375224268 -9.00483720756784 -21.029958008162062 0 0 0
1983 125 2 0.1088680462602705 0.392072487515079 -6.856411988804009 -20.940264886083483 0 0 0
1984 125 1 0.1087388976242078 0.10478160664734304 -7.497792264288353 -20.078125870147417 0 0 0
1985 125 2 -0.1433441166930872 1.8110237939707643 -7.419063130660107 -21.402691962143667 0 0 0
1986 125 1 0.07829213038562692 1.6995747374643408 -8.527606482853283 -21.42945980692982 0 0 0
1987 125 1 0.08003188352431179 2.5752864247579814 -7.17770199615532 -20.629297366722803 0 0 0
2000 125 2 0.5356093703268907 0.4000204627701778 -5.3126382144484845 -20.577002682704705 0 0 0
2001 125 4 -0.5117435838214547 -0.07981856597708673 -4.453003451258053 -21.26793692647115 0 0 0
2002 126 3 -0.5866428486850049 0.9893848951886098 -5.166316335409706 -19.357305708458707 0 0 0
2003 126 1 0.3133043553975572 1.3335518314407022 -5.997362041696517 -18.825736440070905 0 0 0
2004 126 2 0.1161661079506203 1.2104149315312622 -3.80140155686772 -18.916485223965093 0 0 0
2005 126 1 0.1190015512101339 0.632076150093684 -3.1314539612178307 -19.592746315242433 0 0 0
2006 126 2 -0.07939253565463909 0.8327240510563048 -3.7075021560607797 -17.379104646186374 0 0 0
2007 126 1 0.1209234447899505 1.4867882777347845 -4.379434847841688 -16.78401038030165 0 0 0
2012 126 2 -0.1997689983577879 -0.6430721592056239 -4.114717619923136 -17.053223764533367 0 0 0
2013 126 1 0.1039908301493059 -0.8341739372629188 -5.188196198967036 -17.293906430967294 0 0 0
2014 126 1 0.07497824162115764 -0.8623522336505162 -3.9729085574921412 -15.966247160951609 0 0 0
2015 126 1 0.07681007467585596 -1.3681985800742886 -3.5032650195634756 -17.636495141699992 0 0 0
2016 126 2 0.551807658833442 2.787778939313565 -3.5066993186659383 -18.95720458324745 0 0 0
2850 178 2 0.53056925205759 1.7397513024700586 -8.453613391671304 -17.115276238338947 0 0 0
2851 178 4 -0.5625317001748018 1.426237176788766 -7.478150989617603 -17.803870326764578 0 0 0
2857 179 1 0.1052532180308378 -0.06645315190867343 -9.034863754588896 -18.648554205514987 0 0 0
2864 179 2 0.5694096540826212 -1.3868803312248512 -8.823708477761068 -17.030141494023084 0 0 0
2865 179 4 -0.5416609411575755 -1.6299973851987617 -8.924938298178112 -15.85722684258137 0 0 0
2866 180 3 -0.6202618350364512 -2.0930480287903714 -8.234086212141213 -18.007174868843453 0 0 0
2867 180 1 0.2619572619634569 -1.8532575252934316 -8.31659832799022 -18.999075122367945 0 0 0
2869 180 1 0.09003618391827765 -2.5886869588685384 -6.645233288456391 -16.798452097626505 0 0 0
2871 180 1 0.09593999002658218 -2.6205314310700487 -6.124577161490141 -19.373299688269853 0 0 0
2017 126 4 -0.5410089614130261 3.5679001048779044 -4.188958925195443 -18.35876489419429 0 0 0
2678 167 2 -0.08304152520203326 7.322278343819014 -3.078353862474391 -16.2963700782722 0 0 0
2679 167 1 0.07517087849449512 7.833783723262368 -3.157715325560425 -17.27757677007396 0 0 0
2682 167 2 -0.06659462418799565 5.914458894615869 -3.263431056958102 -16.18928850782706 0 0 0
2683 167 1 0.1259270412793993 5.312214939264643 -3.5399762052013535 -17.0788506979916 0 0 0
2822 177 1 0.1006001604534426 6.249040212805257 -8.582991917184682 -19.047203232136326 0 0 0
2825 177 1 0.06431584162589776 4.283691406684011 -9.178130534143367 -20.56451553360463 0 0 0
2841 178 3 -0.6005135847776953 4.1526431204344725 -8.527603011139073 -17.34304865796272 0 0 0
2842 178 1 0.2282814506161267 4.221906178815341 -7.814349901088898 -18.066369285638373 0 0 0
2843 178 2 0.1073135000344461 3.1273147160070036 -8.364973051093955 -16.31539664584533 0 0 0
2844 178 1 0.1203693634401304 3.210099278221771 -9.223247774542171 -15.622818719277895 0 0 0
2845 178 2 -0.06310093960101015 3.2578825895909183 -6.947789636704715 -15.661107503715238 0 0 0
2846 178 1 0.124426224667298 3.2960915131403388 -6.164894405697885 -16.471773131314645 0 0 0
1793 114 2 -0.1516464911715125 -15.480046338190583 1.4370142250764113 -15.899678085751736 0 0 0
1795 114 1 0.07752008668003335 -16.52331798293275 1.7672554081599485 -15.69885287335752 0 0 0
1799 114 2 0.009940230997539698 -16.567673061458777 -0.8718706369564738 -15.383023874164326 0 0 0
1802 114 3 -0.6659303471117367 -17.068914820042778 -0.9813216110001737 -16.852459349569333 0 0 0
1803 114 1 0.2000263265659077 -16.429423799021922 -1.5027513592476849 -17.519031739719775 0 0 0
1804 114 1 0.198463547936018 -17.970399282091293 -1.5307156313386805 -16.950419814768495 0 0 0
1805 114 1 0.2005102552726589 -17.321172179405373 -0.11452957063575853 -17.405799927399066 0 0 0
1789 114 1 0.09540182265078792 -12.797128430628312 1.1091755169985025 -15.63114128249119 0 0 0
1794 114 1 0.08311186000867804 -15.399207947487447 1.3714018669377308 -17.00862822692893 0 0 0
1797 114 1 0.07770376946865966 -14.46353697100253 -0.5112201384632685 -15.935952455204593 0 0 0
1807 114 4 -0.5410614782637349 -11.684292846018185 2.9280356115122808 -16.996888634901687 0 0 0
1854 117 2 -0.1426586336643903 -9.73062210312734 -0.7029132402648298 -16.715576328842953 0 0 0
1855 117 1 0.09978460078699758 -9.895207653685464 -1.3591149562895037 -17.597122077183926 0 0 0
1856 117 1 0.09137222218218291 -10.707072393385422 -0.21588134391199387 -16.51018524453199 0 0 0
1857 117 2 -0.08547449802840434 -9.341999346830125 -1.6670168463182686 -15.541830073104311 0 0 0
1867 118 3 -0.5898656613180486 -9.42481085886855 2.229434039251771 -18.800648280657352 0 0 0
1868 118 1 0.3085723949102465 -9.725885971871694 2.787568133027148 -17.99117778054327 0 0 0
1869 118 2 0.09854834721899479 -9.508536549006772 2.6655022861852213 -20.20235726577391 0 0 0
1870 118 1 0.1216116955654822 -9.972681974102853 1.805077132314288 -20.721101571777655 0 0 0
1848 116 2 0.5802007512623073 -7.7450922697968005 2.3638557953360415 -15.991880184623685 0 0 0
1849 116 4 -0.5612811838628112 -6.796292831216212 2.3469419354244385 -16.72153519411783 0 0 0
1850 117 3 -0.5886731778354921 -8.78364836346204 1.4951259327116952 -16.039636833943007 0 0 0
1852 117 2 0.111611110146833 -8.721385325947544 0.45405278592930803 -17.07112000999658 0 0 0
1853 117 1 0.09905226174018476 -7.7114236394716 0.020627604710058742 -16.93212151531344 0 0 0
1860 117 5 -0.1818708389080178 -8.269522403874715 -2.9978573513149858 -16.239562260744098 0 0 0
1861 117 2 -0.1545367567887349 -6.60575315938846 -2.786302802625581 -15.44667265835439 0 0 0
1864 117 1 0.08069223297128418 -6.0563111521116575 -1.8580910262997026 -15.755177619594535 0 0 0
1865 117 2 0.5543399763816684 -8.901052955312714 1.0234497531112299 -18.54038382875362 0 0 0
1866 117 4 -0.5677123160304419 -8.520936210411685 0.24829311289714096 -19.401043832293027 0 0 0
1876 118 2 0.5430818577030758 -8.065070483220914 2.9450393980601532 -20.795312746520022 0 0 0
1878 119 3 -0.5904147492167994 -7.0119778459531785 3.059770114149294 -19.948406693478955 0 0 0
1879 119 1 0.2891645314009197 -7.186675198915957 2.9109394221912135 -18.952214384617626 0 0 0
1893 119 2 0.5575902220242963 -5.323304390289777 1.5548101751662617 -21.10498073886062 0 0 0
1895 120 3 -0.587303064832187 -6.085922607120381 0.534651991230587 -20.669487682562135 0 0 0
1896 120 1 0.3172487700105857 -6.915999770914934 0.7503352194092405 -20.103406411760794 0 0 0
1897 120 2 0.1194016142302761 -5.781904629824326 -0.8400883349516105 -20.958431354395035 0 0 0
1898 120 1 0.0940604144322273 -4.740895876507944 -0.8805602121410302 -21.334249261138407 0 0 0
1899 120 2 -0.130459362171133 -5.886711454675829 -1.6232153397586937 -19.572793169244125 0 0 0
1900 120 1 0.09454205544952086 -5.856627201329124 -2.7314583174674127 -19.72470997167767 0 0 0
1901 120 1 0.1273935550897919 -6.873573335758713 -1.3904226966052313 -19.108164330937388 0 0 0
1902 120 2 -0.01523314385902982 -4.72081333282466 -1.1935978771305982 -18.652072978209397 0 0 0
1903 120 2 -0.09110033487549346 -3.366869649572653 -1.5306490012854335 -18.94871958624138 0 0 0
1904 120 1 0.06946555188624087 -3.1349020521012014 -2.199500984274309 -19.795605423427297 0 0 0
1909 120 2 -0.05805557426993013 -4.997552620066738 -0.34295232660033187 -17.545694389372954 0 0 0
1910 120 1 0.09880786565316611 -6.054839166333612 -0.09387246887896084 -17.350751444470735 0 0 0
1911 120 2 -0.07224956097910917 -3.9589990615528086 0.18717817371259102 -16.740851487048616 0 0 0
1912 120 1 0.1031851276167035 -4.187776901715382 0.8523800504289024 -15.880481599267748 0 0 0
1905 120 2 -0.08699453512992525 -2.3314689074467307 -0.9667942155109904 -18.170619331288155 0 0 0
1906 120 1 0.07021365762071186 -1.2862978897335275 -1.1680307967922392 -18.46525115621447 0 0 0
1907 120 2 -0.08087351732411377 -2.612962241409618 -0.1433148627602477 -17.046615003576985 0 0 0
1908 120 1 0.08482709298153931 -1.790696343118014 0.21751521196039028 -16.396637897203565 0 0 0
2008 126 2 -0.2238894618499617 0.9955407946721928 -2.227503732268058 -16.879693216469747 0 0 0
2009 126 1 0.1029517265859363 2.0753002399477176 -1.959070100257377 -16.883251922718493 0 0 0
2010 126 1 0.0785921686724009 0.4707844238205748 -1.4747441281910538 -17.514044068138972 0 0 0
2011 126 1 0.08706631926836716 0.6080488857921684 -2.0808592591647814 -15.840625879435558 0 0 0
2018 127 3 -0.5819168660272968 2.997491573468507 -2.3890262176993584 -19.670652021537876 0 0 0
2019 127 1 0.2965661001636552 2.1959283060621506 -1.9285682207387493 -20.138578394335543 0 0 0
2066 130 3 -0.5723479076708254 2.4354909942411176 2.2968246718442615 -20.030247711903456 0 0 0
2067 130 1 0.2917345895117147 3.0818109320108382 1.5305986901443298 -20.20347098735345 0 0 0
2068 130 2 0.119563825284108 0.9804590508520268 2.172455661062964 -19.88417337815462 0 0 0
2069 130 1 0.1281020950875665 0.5545570818683464 2.8922690767127093 -20.61440106224895 0 0 0
2070 130 2 -0.160478019556732 0.5767134503283351 0.6778651321697737 -20.084004206659042 0 0 0
2071 130 1 0.07116817164808042 -0.525064674950761 0.5690307868616641 -19.972719638224124 0 0 0
2072 130 1 0.1050419520151986 1.015751797022864 0.003942700987924625 -19.317417391291187 0 0 0
2073 130 2 0.6374999070138456 1.0621098104500832 0.14190606631408353 -21.49134222578782 0 0 0
2076 130 2 0.5553405002688773 0.42422259724815126 2.4762732198619806 -18.412925300690624 0 0 0
2078 131 3 -0.5990230944056314 1.0996967036863237 1.7967670464037613 -17.467211616779075 0 0 0
2079 131 1 0.309418937533178 1.863945343831304 1.1668767450415338 -17.783387309537677 0 0 0
2080 131 2 0.1077149181074776 0.7279306430347279 2.021126513245649 -16.072310003323675 0 0 0