LAMMPS data file via write_data, version 23 Jun 2022, timestep = 12

3720 atoms
7 atom types

-38.7019 38.7019 xlo xhi
-38.7019 38.7019 ylo yhi
-38.7019 38.7019 zlo zhi

Masses

1 1.00794
2 12.0107
3 14.0067
4 15.9994
5 32.065
6 24.305
7 55.845

Atoms # full

3153 195 4 -0.494240077270348 -0.11015752851140456 -11.346629158870764 -19.684270863951387 0 0 0
3168 196 4 -0.5071987316809798 0.299311912221756 -7.514061144699292 -19.8009674702938 0 0 0
3172 197 1 0.1229264190739056 3.147776662666869 -8.775280794371445 -19.575840359608822 0 0 0
3173 197 1 0.1150906266405067 2.4685012762276557 -7.0554217113646205 -19.512852404254186 0 0 0
3219 199 3 -0.6875208808883315 6.084255989016942 -12.197632034472337 -19.615118573130424 0 0 0
3221 199 1 0.2726204900296169 5.153346593217423 -12.598103033101067 -19.508786968166916 0 0 0
3214 199 1 0.2220108232612597 8.10258365431968 -10.942803637187502 -19.69018607339744 0 0 0
3220 199 1 0.2582081526663822 6.921236879616235 -12.654901184744311 -19.959569882814197 0 0 0
2768 172 1 0.09271377350746855 6.438923007333522 -0.4426723745163643 -19.46777153372731 0 0 0
2782 173 1 0.0734074894672227 9.02353139978954 -3.7465482431201607 -19.729519131779334 0 0 0
2788 174 3 -0.5799778371073824 8.814531452723175 -0.9476032236483009 -20.046462493946898 0 0 0
2789 174 1 0.2166372822060723 7.949797309306851 -1.4497678188514491 -20.244402212518438 0 0 0
2791 174 1 0.1164710924459872 10.349814948797425 -0.16740391006942248 -21.19716321085153 0 0 0
2794 174 1 0.07367377657964513 8.454830061813599 -0.5676210013263692 -22.793773926868777 0 0 0
3270 202 1 0.205228661034846 13.787370551543013 -2.3377257687485717 -19.51080097185837 0 0 0
1970 124 2 -0.1639965471473324 -3.5966716684255773 4.675866547415716 -19.57441512954826 0 0 0
1971 124 1 0.08439302008299451 -2.7890564060992054 5.4410599981811005 -19.47133536515981 0 0 0
1972 124 1 0.1012275295735727 -4.3843700886025685 5.095727240761824 -20.2551125474977 0 0 0
1973 124 2 -0.1686851188978684 -2.9324582005951347 3.3602885876017616 -20.05604975216671 0 0 0
1974 124 1 0.09043827354055595 -3.616774734097206 2.4930186820953746 -19.930526567502685 0 0 0
1975 124 1 0.1052061782561682 -2.0153745738041278 3.1761992434129183 -19.451454642494465 0 0 0
1976 124 2 0.6699285952150366 -2.4533025809366724 3.2965750943170637 -21.612948381566124 0 0 0
1977 124 4 -0.4280126352058652 -2.2471496920709173 2.1575819048912535 -22.05860018826934 0 0 0
1978 124 4 -0.4519451045943482 -2.2164663867141656 4.337272687329017 -22.23457585138537 0 0 0
1993 125 2 0.2727397002882491 1.342409132403122 3.455232793663304 -19.56846888433534 0 0 0
1994 125 4 -0.5117939073320664 1.8122960813780435 2.813758249577187 -20.706127645387877 0 0 0
1995 125 1 0.4007098720462517 2.5021998850206337 2.0901015962182856 -20.40084985836474 0 0 0
1998 125 2 -0.06610053954526987 0.755657793365865 4.752790475751864 -19.697571700882943 0 0 0
1999 125 1 0.1241797338330383 0.6823165614945539 5.2340222580360605 -20.6862401034288 0 0 0
2769 172 2 0.6441217523057267 4.569327076211161 0.6773856404535602 -19.948810202276015 0 0 0
2770 172 4 -0.5437984408166654 3.320208699915757 0.7291859697240362 -19.897022987739653 0 0 0
2771 172 4 -0.5642061887836792 5.31809053134492 1.4889335060626736 -20.608809204036238 0 0 0
2805 175 1 0.3738836354208652 5.6729653247874925 2.8901750355916143 -19.749906726502783 0 0 0
2809 175 1 0.09145623134754224 5.731604343083856 5.032685338436847 -20.86287632436442 0 0 0
2790 174 2 0.1071203858470543 9.3426789623099 0.14232186733649985 -20.870886721128315 0 0 0
2792 174 2 -0.2349610793836815 8.404826802217672 0.31997939271767517 -22.10990083202999 0 0 0
2793 174 1 0.07068586271596702 8.738138286739838 1.1929894318608343 -22.72219221785523 0 0 0
2795 174 1 0.104661144253265 7.333768105317445 0.4950065758731358 -21.824635166171287 0 0 0
2796 174 2 0.568035984909633 9.445901006898227 1.5665984173363334 -20.120483664091864 0 0 0
2797 174 4 -0.4707325299821785 10.522114680253921 2.0816920894171242 -19.964557657256563 0 0 0
2798 175 3 -0.5862891761446811 8.255676875641488 2.1494520353234927 -19.830162690699463 0 0 0
2799 175 1 0.2706561391633527 7.429254602293434 1.6841474685676596 -20.20105362633356 0 0 0
2801 175 1 0.1137640475668423 9.10859567400185 3.996136513413245 -19.80676367160811 0 0 0
2806 175 2 -0.2300052806555248 6.752995385962131 4.58800400581806 -20.82076406405764 0 0 0
2807 175 1 0.05906341862197419 7.492394356924397 5.353958236915076 -21.168858558330005 0 0 0
2808 175 1 0.1015952598223409 6.775880710340085 3.713075876115353 -21.520171474631155 0 0 0
2837 177 1 0.2009654981921532 2.4968614601037324 8.297545848600368 -19.620202449317777 0 0 0
71 5 4 -0.5517328047653308 4.740924073661003 -19.7506866294414 -15.856299709233031 0 0 0
72 5 1 0.3758839969452488 5.559313267171802 -19.44022507250236 -15.36740242484639 0 0 0
75 6 3 -0.5396870866390178 3.0235531766362493 -19.529557957868214 -13.35972809114976 0 0 0
76 6 1 0.2692930462078446 4.024368078186104 -19.58259804448496 -13.175779568676846 0 0 0
78 6 1 0.09806728712923882 1.284935320930396 -20.705772762474147 -13.203739262113093 0 0 0
82 6 2 -0.1288431941293772 3.7533762489054006 -22.327511904820696 -13.201067847470703 0 0 0
83 6 1 0.1315466917317045 4.4044532609106275 -21.66532166600553 -13.830621537254508 0 0 0
84 6 1 0.08229215390387307 2.9944426014850225 -22.84264633855008 -13.850805960453595 0 0 0
88 6 2 0.009464480795315228 5.231437957307573 -24.483003390176204 -13.43389178161581 0 0 0
89 6 1 0.07274834777358291 4.4885846706152375 -25.2148852414794 -13.833596713645045 0 0 0
90 6 1 0.08187863716575658 6.153422450253063 -24.976370854342523 -13.052260558209696 0 0 0
91 6 3 -0.6631635837837955 5.803660652946136 -23.788298170236953 -14.674121001659907 0 0 0
92 6 1 0.2367117616897509 5.1519208109834205 -23.266713026634825 -15.340990282246304 0 0 0
94 6 1 0.2239327183900203 6.36696284958148 -24.43344682345829 -15.312653511192973 0 0 0
39 3 2 0.6385180181351928 7.6711995553378225 -20.623176230321505 -13.938214392091808 0 0 0
40 3 4 -0.5506989921514878 7.597099450234323 -21.871254266422266 -14.284654418978024 0 0 0
41 3 4 -0.5667876536585886 7.030092262136675 -19.697002254169664 -14.462545621058391 0 0 0
93 6 1 0.3371321659630735 6.572973624188078 -22.989770050160832 -14.39261399945399 0 0 0
3077 191 2 0.7110459545018145 -3.7096215880883956 -13.079637869327849 -13.355407179286766 0 0 0
3079 191 1 0.2609582336868385 -1.553042633078425 -13.177431934884588 -13.669103371627536 0 0 0
3144 195 2 -0.1772366480765125 -0.7542323955077745 -13.530272597798962 -17.413078297946136 0 0 0
3145 195 1 0.07915920120670264 -1.2894758354898308 -13.770992605729857 -18.36884268557249 0 0 0
3146 195 1 0.1024165505715098 -1.461623701867834 -12.944764815546058 -16.773305286513928 0 0 0
3147 195 2 0.5809146100476424 -0.3151340382649474 -14.85219209569226 -16.665774161978348 0 0 0
3149 195 3 -0.6664043505213003 -1.3752061564748022 -15.441511839869149 -16.062898076281016 0 0 0
3150 195 1 0.2363792256673463 -2.354822477833153 -15.14109038844302 -16.1597935363113 0 0 0
3151 195 1 0.2762695544238809 -1.2653143337047823 -16.25066071170439 -15.439096595102727 0 0 0
49 4 1 0.07621555492170985 5.630769252610559 -14.007587956277241 -12.964950892009652 0 0 0
62 4 2 0.5737479898437491 4.6282502771114284 -16.662940850817954 -12.936012862323444 0 0 0
64 5 3 -0.5933730324041405 4.722169568600875 -17.408502821750535 -14.077985274178241 0 0 0
65 5 1 0.2791150668713808 5.62718879136094 -17.86092961417129 -14.176505342681686 0 0 0
66 5 2 0.100281767791937 3.5860983182197956 -17.67510190892702 -14.956802810634699 0 0 0
67 5 1 0.1031545460652772 3.135907386484334 -16.716293222479845 -15.295704829358804 0 0 0
68 5 2 0.07785747869927856 4.087404584011542 -18.509437705230688 -16.192291825310704 0 0 0
69 5 1 0.07642909901502445 4.801675544193557 -17.909066460596637 -16.82463263645208 0 0 0
70 5 1 0.1039632943500119 3.1809788805706187 -18.756165266206732 -16.814269965996047 0 0 0
73 5 2 0.6199666318541431 2.522566703338975 -18.604843614308788 -14.207373993877356 0 0 0
74 5 4 -0.499808180196768 1.3739248533711934 -18.497500768253136 -14.536445134192947 0 0 0
3124 194 1 0.1109922400131119 2.863287472127882 -13.329361026053595 -14.360304341759674 0 0 0
3126 194 2 -0.02941920415784751 4.755084134878783 -13.048013618658405 -15.381685176475322 0 0 0
3134 194 2 -0.09083237863950336 4.439448780405804 -14.199875661335668 -16.17143245615323 0 0 0
3135 194 1 0.1132882798328222 3.4244782555874727 -14.630255646873456 -16.216940217052574 0 0 0
3136 194 2 -0.07678962238350512 5.493969880967116 -14.818845599147853 -16.845018921884954 0 0 0
3137 194 1 0.09413000133334234 5.285776957596755 -15.776272389511538 -17.34809005484639 0 0 0
3143 195 1 0.123018441387556 1.244306377970603 -13.117624576570343 -18.346989423334662 0 0 0
3148 195 4 -0.4956517279195414 0.8045160647104042 -15.281757767551289 -16.586026944794725 0 0 0
35 3 1 0.1080906711005499 9.060005921740519 -18.545353877460176 -13.149453850586044 0 0 0
45 4 1 0.2304773277762726 7.7879972751992375 -16.84414862431692 -13.381294950118303 0 0 0
48 4 2 -0.1621959640182977 6.474424849394966 -14.739753108509493 -13.016019727472148 0 0 0
50 4 1 0.08802141930273745 6.732204897222951 -14.859523682542076 -14.094531786659521 0 0 0
53 4 1 0.08469653420863875 9.200871791152718 -15.10452669004818 -13.570041106391264 0 0 0
3129 194 2 -0.1198012977224554 7.063994727911001 -13.05449989090475 -16.145924806703924 0 0 0
3131 194 2 0.2335787871515126 6.814245385835583 -14.264727151260269 -16.85994514255369 0 0 0
3132 194 4 -0.5572978250146846 7.785324687881908 -14.946983033340786 -17.618601170974976 0 0 0
3133 194 1 0.27765447429901 8.628952990495835 -14.667904963346894 -17.21569831657637 0 0 0
2970 185 2 -0.2052001850916547 -7.219281173199754 -8.6179241397653 -13.900624041816641 0 0 0
2971 185 1 0.07377368656357881 -7.863719091933662 -8.269023135365298 -14.751065449276382 0 0 0
2972 185 1 0.1059826510689764 -6.826235405969497 -9.62445018125329 -14.192942909691395 0 0 0
2973 185 1 0.08585452246765778 -7.902186049181478 -8.768105311350162 -13.024536870705424 0 0 0
3044 189 1 0.255295634722043 -8.756663529876043 -11.54111289977281 -13.6616054311279 0 0 0
2964 185 1 0.09830819011537156 -4.015003175721801 -9.521365366601813 -13.152070070531845 0 0 0
2967 185 2 -0.1357677458765096 -6.0158124746183095 -7.64627177468153 -13.589693161977317 0 0 0
2968 185 1 0.07614656393329729 -5.327099438124717 -7.731569784673538 -14.47950092531127 0 0 0
2969 185 1 0.1225333747788287 -6.3638196527278446 -6.572228568153704 -13.561442605864698 0 0 0
3078 191 3 -0.6928184984540078 -2.4607417966524365 -12.820673818281671 -13.958394742123652 0 0 0
3080 191 1 0.3495675980486677 -2.377341249956544 -11.924547270632544 -14.56298342551579 0 0 0
3081 191 3 -0.699439616697165 -4.800619140290923 -12.311337976325222 -13.813956675428768 0 0 0
3082 191 1 0.3410189188844204 -5.770453461993013 -12.497845948708559 -13.503089869677959 0 0 0
3083 191 1 0.3505200515634073 -4.642935381603852 -11.716654878364979 -14.679100650058064 0 0 0
3110 193 1 0.1197988034462217 -0.6673092474016585 -10.088218534229513 -13.398377875473765 0 0 0
3111 193 2 -0.1310702716165151 -0.3417675093391637 -7.8262447953920145 -13.323230927222177 0 0 0
3113 193 1 0.09050863427649042 -0.5261462718816712 -7.443978691978296 -14.358874710640823 0 0 0
3152 195 2 0.5674725109156074 -0.05830325763853454 -11.29822847188415 -18.48588351587524 0 0 0
3154 196 3 -0.5967860772775792 -0.48070579082459647 -10.282349038585071 -17.70961438523705 0 0 0
3155 196 1 0.3134994755333336 -0.47337194200944194 -10.380331172656685 -16.69500064884645 0 0 0
3156 196 2 0.1189453035102259 -0.876103231080967 -9.03379739544975 -18.333622708292992 0 0 0
3157 196 1 0.1193401556622492 -1.5369268942996672 -9.316088986991266 -19.17355429331188 0 0 0
3158 196 2 -0.1552335926441512 -1.6906662115478035 -8.211501950498597 -17.253789179138312 0 0 0
3159 196 1 0.07392222171266594 -1.995310065782463 -7.237223907645069 -17.707013465837107 0 0 0
3160 196 1 0.1120040509004479 -1.002921965820338 -7.948440664806937 -16.41494272705066 0 0 0
3161 196 2 -0.1657715194354129 -3.007074665339325 -8.87436864057664 -16.74324968603826 0 0 0
3162 196 1 0.0835014019038965 -3.7585753912748574 -8.927514437574995 -17.565277247232245 0 0 0
3163 196 1 0.06385981594187241 -3.462104425314632 -8.254390242802245 -15.926532264731376 0 0 0
3164 196 2 0.6408974362115251 -2.978181251218841 -10.33243823149222 -16.10182837817572 0 0 0
3165 196 4 -0.5652451167088381 -4.107647388230987 -10.88656646837547 -16.019631257261565 0 0 0
3166 196 4 -0.6065608233291124 -1.9599835157331995 -10.642662635838944 -15.404961787609475 0 0 0
3109 193 2 0.1033493999180124 0.14653928860459003 -9.347926487483823 -13.266551735004784 0 0 0
3116 193 1 0.07656134049674017 1.6622962425753811 -6.761342339872589 -13.014303811631489 0 0 0
3117 193 2 0.5683122313564228 1.2466168974921252 -9.677164102733238 -14.397560314934207 0 0 0
3118 193 4 -0.574476037670861 1.2660003504929875 -8.959552435687671 -15.360924735918477 0 0 0
3119 194 3 -0.6094662873074772 1.9979396555820172 -10.770617480710447 -14.157749755192285 0 0 0
3120 194 1 0.2958592695424263 1.920728778006314 -11.247630870098988 -13.25245930977245 0 0 0
3121 194 2 0.1061300819822053 2.968817205231561 -11.234244598671415 -15.142115229532317 0 0 0
3122 194 1 0.1370861620896089 3.707888593327985 -10.419321618252894 -15.320080938724606 0 0 0
3123 194 2 -0.1525286542078484 3.62955043278807 -12.523035208316058 -14.479410560118804 0 0 0
3125 194 1 0.07590140668214561 4.066537365135726 -12.29569521410471 -13.470556625864749 0 0 0
3127 194 2 -0.09211578052662156 6.057484441932474 -12.460460074181759 -15.368517184788704 0 0 0
3128 194 1 0.09903962049451777 6.259482636998776 -11.55892455445373 -14.764845733183764 0 0 0
3138 194 2 0.5752855431564612 2.2299680191824582 -11.598035254529863 -16.496791403480568 0 0 0
3139 194 4 -0.5712108373298784 2.840398298969496 -11.281800792374133 -17.511149281521444 0 0 0
3140 195 3 -0.5899333637354026 1.087011210382896 -12.288988234326341 -16.44842835032479 0 0 0
3141 195 1 0.2567560360753307 0.5747721622030139 -12.381547949500415 -15.577393283156946 0 0 0
3142 195 2 0.11380481919586 0.4734192009638095 -12.615587809112133 -17.729573228513996 0 0 0
3167 196 2 0.5809154656838426 0.43487877142394304 -8.28932426405173 -18.883315466793658 0 0 0
3169 197 3 -0.5805121005020557 1.5874623301411492 -8.498442823490702 -18.22275687742042 0 0 0
3170 197 1 0.3196328705795655 1.6375450192018537 -9.220632473214238 -17.503176465179994 0 0 0
3171 197 2 0.07239381363820141 2.7872227443502244 -7.945533322220087 -18.900644617819292 0 0 0
3174 197 2 0.5434564385675615 3.937027851495888 -7.529906401497713 -17.91196173579595 0 0 0
3175 197 4 -0.5341637562454318 5.018436323384979 -7.257259074434025 -18.373794676711892 0 0 0
3176 198 3 -0.5533543938811978 3.560872761969984 -7.4365278014918275 -16.606685908771208 0 0 0
3177 198 1 0.2954626980094053 2.556562406970849 -7.664240198931652 -16.461514141206603 0 0 0
3178 198 2 0.1143721058815267 4.628131502164165 -7.066829402518043 -15.670391061688807 0 0 0
3180 198 2 -0.1472635617770262 3.8437744129447413 -7.112559372835097 -14.290206763482347 0 0 0
3181 198 1 0.1174402933535338 3.4075103400194826 -8.137045115775441 -14.166321780970335 0 0 0
3183 198 2 -0.0454235702977224 4.710325546299532 -6.850862497343996 -13.063974864373595 0 0 0
3191 198 1 0.0948607825990149 4.739502219812742 -9.874635956646063 -13.012137011819714 0 0 0
3198 198 2 0.5740713614843669 5.8529472199551655 -8.067252266374672 -15.581954311886298 0 0 0
3199 198 4 -0.5790439557436747 5.620918951265673 -9.261142481665964 -15.582826949671915 0 0 0
3215 199 2 0.6794337724509087 6.346127989182811 -11.020647881529952 -18.926600726455444 0 0 0
3216 199 3 -0.6642823141526928 5.303118593212468 -10.52200598521338 -18.104232942974082 0 0 0
3217 199 1 0.3315765393811115 5.5102520305918645 -10.046980696121583 -17.213176658402404 0 0 0
3218 199 1 0.3382380540701396 4.467532655907497 -11.138864206956681 -17.95093769939349 0 0 0
3130 194 1 0.06522999545814276 8.064152528209913 -12.590011290498616 -16.19819423536375 0 0 0
3200 199 3 -0.5765087905740334 7.05497653751994 -7.471375362439595 -15.467119355375802 0 0 0
3201 199 1 0.2620307786042062 7.159281536019233 -6.45883912674334 -15.384037425122626 0 0 0
3202 199 2 0.1156201374922814 8.192690258628636 -8.216437432663716 -15.031234702804323 0 0 0
3203 199 1 0.08952115746107871 7.822433083567654 -9.214193706018458 -14.74095453035339 0 0 0
3204 199 2 -0.1695139267527053 9.240192357516134 -8.474792604222115 -16.23122732925605 0 0 0
3205 199 1 0.06838497922407977 10.17491909005358 -8.893472466384678 -15.781401541141662 0 0 0
3206 199 1 0.08552580977119542 9.53125006233057 -7.539588648988024 -16.777843442715632 0 0 0
3207 199 2 -0.1393904264464516 8.715040094219813 -9.550470703213998 -17.12250808321049 0 0 0
3208 199 1 0.1014708844279512 8.012937388112743 -10.18360540317073 -16.54726294032025 0 0 0
3209 199 1 0.06675089020947958 9.544591242521825 -10.253945209502632 -17.375963123183414 0 0 0
3210 199 2 0.04797901708767307 8.041817024599153 -9.127217611611677 -18.422984111655687 0 0 0
3211 199 1 0.06785116120481756 8.783904104418001 -8.723323647544753 -19.14304675638157 0 0 0
3212 199 1 0.1426827650139456 7.148025292632686 -8.467900448961812 -18.362310034931035 0 0 0
3213 199 3 -0.5764547503683286 7.54983369478071 -10.411997484580793 -19.034523456457958 0 0 0
3222 199 2 0.5297727534866373 8.839269186548032 -7.438380637705956 -13.782511307868612 0 0 0
3224 200 3 -0.4280004113490921 9.631664641583104 -8.103553701881102 -12.980383816343897 0 0 0
3225 200 2 -0.004842431500307755 9.614462506615709 -9.582581360755123 -12.951314685147095 0 0 0
3227 200 1 0.05924746295703801 10.10198537029691 -10.057317467362058 -13.83681273229019 0 0 0
2885 181 1 0.09289303119363303 -6.695447293176282 -2.0976664020506632 -14.696633488256817 0 0 0
2858 179 2 -0.1316493596722607 -1.0008188110439655 -0.5490802295915096 -15.721673397711365 0 0 0
2859 179 1 0.07431310165881862 -1.7811659143508753 -0.5545977597279577 -16.527480621255297 0 0 0
2860 179 1 0.1045600001535666 -1.1930739393855274 -1.4422780144872431 -15.077311681552157 0 0 0
2865 179 4 -0.534334576612006 -2.1283425088259023 -0.2803644179207537 -13.006422814028573 0 0 0
2880 180 2 0.5836087659954738 -5.188029311297545 -0.27223273447074897 -13.491368760560922 0 0 0
2882 181 3 -0.5917365759683557 -5.092762850271319 -0.764922806639436 -14.721169090711198 0 0 0
2883 181 1 0.2440664693493672 -4.711256995031439 -0.16173704162483388 -15.426460012502233 0 0 0
2884 181 2 0.1037445400207442 -5.645599724842803 -2.1203323294272844 -14.984129585205206 0 0 0
2886 181 2 -0.2312868073066718 -5.4645470028784935 -2.421106915658296 -16.563006306699652 0 0 0
2887 181 1 0.07668335730523262 -4.41751644453052 -2.3932098438788727 -16.901093633978324 0 0 0
2888 181 1 0.07284841402211284 -5.896225914886041 -3.422720161454206 -16.739937802852246 0 0 0
2889 181 1 0.0802879331833649 -5.993501322067737 -1.6354561129765386 -17.123981069894906 0 0 0
2890 181 2 0.5861991305236653 -4.868852348887087 -3.2396370692075434 -14.111624761482148 0 0 0
2891 181 4 -0.579905109455636 -5.566074615745616 -4.140873259793604 -13.803146982627602 0 0 0
2892 182 3 -0.5872017818980305 -3.541521611380849 -3.0578070446604015 -13.981638054457083 0 0 0
2893 182 1 0.2669442718166659 -3.0826707526916475 -2.1714487799233995 -14.25333846696576 0 0 0
2894 182 2 0.1026863434000161 -2.829036391466237 -4.113423465449336 -13.279776442623508 0 0 0
2895 182 1 0.09569447994651654 -3.288250681311498 -5.036064209858485 -13.68319130295907 0 0 0
2896 182 2 -0.1700973065615816 -1.228750528873087 -4.075748283961764 -13.451744012662383 0 0 0
2898 182 1 0.1008345077132754 -0.7052226596455451 -3.126294553805006 -13.142944708584062 0 0 0
2899 182 2 -0.03374045003707203 -0.8073437527090249 -4.375779145968484 -14.891017369782729 0 0 0
2900 182 2 0.09769296510332881 -1.609616188313485 -4.735855992067846 -15.979695024039218 0 0 0
2901 182 1 0.06547461468921403 -2.710849068045473 -4.906013587967684 -15.968401031697368 0 0 0
2902 182 3 -0.4925002685132102 -0.8690190411090395 -4.8441818736962095 -17.09003650990849 0 0 0
2903 182 1 0.2182532268920001 -1.1940309530634607 -5.087867822545224 -18.033807929490635 0 0 0
2757 171 2 0.5577428903078088 5.698286263895894 -1.387082661262059 -14.223044842871213 0 0 0
2758 171 4 -0.5212504453565251 6.124860400037418 -2.4989996610073075 -14.207391725150107 0 0 0
2759 172 3 -0.5878990116720344 5.467749861955883 -0.6185056275371308 -15.318727723342686 0 0 0
2761 172 2 0.08939722413282555 5.8042875672722465 -1.186414504127023 -16.626582513530316 0 0 0
2762 172 1 0.06944901794214636 5.222746604414597 -2.1258374158635607 -16.725018233726697 0 0 0
2766 172 2 -0.1855686547890039 5.4013646327597975 -0.3780895356412375 -19.068523819466375 0 0 0
2767 172 1 0.0662577280381486 4.932564248670819 -1.3716910377110803 -19.196104947424352 0 0 0
2777 173 1 0.06263080803251346 6.163720338907955 -3.732230931680875 -18.07150976489925 0 0 0
2853 179 2 0.01458034539431017 1.254462902541281 -0.15743149401020615 -14.889487266291757 0 0 0
2855 179 1 0.1034347248302003 1.440964715242489 -1.083407529487982 -14.290648756619571 0 0 0
2861 179 2 -0.1475077726774431 0.45827371900122527 -0.5350051911402229 -16.241455747151022 0 0 0
2863 179 1 0.08540563382605447 0.8051817924364759 -1.5040639724957692 -16.670744015235382 0 0 0
2904 182 2 0.19185667423028 0.44018482154874977 -4.561270937738955 -16.843991553954897 0 0 0
2905 182 2 -0.013570459365238 0.5515406260211466 -4.288169826017829 -15.394647672442478 0 0 0
2906 182 2 -0.1097325645861027 1.8326195982758557 -3.9517025702465367 -14.839675625908118 0 0 0
2907 182 1 0.07721606353062786 1.9628028546771923 -3.7169605447740004 -13.763832513833176 0 0 0
2908 182 2 -0.08960277129818006 2.9198479142478773 -3.898292404446983 -15.744014948872723 0 0 0
2909 182 1 0.09480255666245437 3.8993308410880196 -3.671595942386913 -15.279212438224631 0 0 0
2910 182 2 -0.09113014277084236 1.55218608675929 -4.40940644962036 -17.7283906020598 0 0 0
2911 182 1 0.09817938716714265 1.425418167924993 -4.539662571988031 -18.83757371061738 0 0 0
2912 182 2 -0.09659927338799765 2.7995733924091604 -4.062529277362117 -17.164281507667962 0 0 0
2913 182 1 0.06987223291571402 3.704228741929858 -3.888050055506464 -17.79679301564852 0 0 0
3179 198 1 0.08129745087855325 5.040759558602933 -6.07895517921909 -15.959826068344649 0 0 0
3182 198 1 0.08180797680955668 3.012242449065114 -6.363288171185512 -14.321719559027933 0 0 0
3185 198 1 0.08496519682354002 4.721382313467907 -4.615053039042854 -12.907670409475196 0 0 0
2754 171 1 0.1108552167670576 8.113952056175503 -1.4378048621441801 -12.94866913143703 0 0 0
2772 172 2 0.5293081511642774 7.376723251918498 -1.361247924796639 -16.86955257702769 0 0 0
2773 172 4 -0.4991875043941715 8.149549150247116 -0.5344493379352577 -16.449793625921295 0 0 0
2774 173 3 -0.4565704183122541 7.737986452363844 -2.40923950099375 -17.620473287763723 0 0 0
2775 173 2 0.008895416807586796 7.089960245344257 -3.7108222226928578 -17.432004552495922 0 0 0
2776 173 1 0.1046258347144254 6.792810826669567 -3.7886277226578686 -16.348254280300107 0 0 0
2778 173 2 0.09933916255323517 9.15108218881704 -2.466643117448736 -18.017763027416578 0 0 0
2779 173 1 0.1126704763289223 9.758511415236512 -2.4355469765167452 -17.080279782523743 0 0 0
2780 173 2 -0.1563592926533816 9.261538093283326 -3.899248759274951 -18.645985341789157 0 0 0
2781 173 1 0.06618940382472127 10.287222620183147 -4.355957905699757 -18.556410180299963 0 0 0
2783 173 2 -0.1322302586915469 8.210902879786405 -4.735707247632548 -17.855673532323557 0 0 0
2784 173 1 0.09415148971599555 8.68678929453781 -5.149756592665964 -16.926625764725436 0 0 0
2785 173 1 0.08116750687513422 7.821806183981214 -5.6015859259660905 -18.45511624780294 0 0 0
2786 173 2 0.5653048303556052 9.626153170590143 -1.3570057023169595 -19.067840611752633 0 0 0
2787 173 4 -0.5509752198426281 10.826966451109358 -1.0870175068974086 -18.963677537348957 0 0 0
3223 199 4 -0.482754286628218 8.499936254283524 -6.281809650065623 -13.64222497640611 0 0 0
3237 200 4 -0.4812729775723292 11.752547248767788 -6.1357431556619435 -13.18970953293183 0 0 0
3267 202 1 0.08187562420252627 12.73162425413345 -2.9856193993183124 -17.316357608191158 0 0 0
3271 202 1 0.3270887359952304 12.463534877055386 -1.3524782269430524 -18.982305482798434 0 0 0
3252 202 3 -0.5961741546757628 13.567903079656537 -3.174277485575576 -13.067218446913119 0 0 0
3253 202 1 0.2076627384718761 12.898869480991202 -2.7064726674080903 -13.67502651851977 0 0 0
3254 202 2 0.1141707711417087 14.998593023295264 -3.07048991422275 -13.365521284836326 0 0 0
3255 202 1 0.1236860494593921 15.460169820995617 -4.06833422607617 -13.312425610812278 0 0 0
3256 202 2 -0.1618591815393395 15.22291875375036 -2.436591025728854 -14.781856239947645 0 0 0
3257 202 1 0.08875803317585934 16.250073225619204 -2.006888972412088 -14.922733413904195 0 0 0
3258 202 1 0.06770697072852244 14.49970008446801 -1.6028817314808073 -14.959663601509162 0 0 0
3259 202 2 -0.1509701534631052 15.019699070854658 -3.6338417164543317 -15.770943153107739 0 0 0
3260 202 1 0.1052128299180985 14.068520073415996 -4.167099077535046 -15.538907165973653 0 0 0
3261 202 1 0.08861131925725962 15.83424554997973 -4.403576942069681 -15.733028084816782 0 0 0
3262 202 2 -0.1640674735594995 14.949246846003778 -3.045779100442698 -17.224918832956536 0 0 0
3263 202 1 0.0838975719780312 15.833029059042332 -2.4027166726988662 -17.472075685351967 0 0 0
3264 202 1 0.07278900529477791 14.946629684200554 -3.940316674015386 -17.89147994568129 0 0 0
3265 202 2 0.02556232780491077 13.598937848393994 -2.2921692738207375 -17.352586239401926 0 0 0
3266 202 1 0.09073175473433193 13.458245583804969 -1.4078490536045352 -16.69248344106145 0 0 0
3268 202 3 -0.6714913237862951 13.503654228946523 -1.6506648541482254 -18.749675784802154 0 0 0
3269 202 1 0.2253382672276347 14.108728679828626 -0.7958870255664833 -18.995588040246684 0 0 0
1919 121 2 -0.1518303205815544 -13.36749051836062 6.1412917783330325 -13.108838369701362 0 0 0
1920 121 1 0.06583954045731424 -13.977365273033447 6.0513222012558 -14.040523008232588 0 0 0
1930 121 1 0.08320074144475789 -16.4535285940728 6.1244452752349865 -13.342875037369627 0 0 0
1914 120 4 -0.5339314126622956 -9.245360910352368 4.851605734549069 -13.152129993845254 0 0 0
1917 121 2 0.107376072839899 -11.859184362409557 5.779695331808274 -13.418514248716917 0 0 0
1918 121 1 0.09078244853625977 -11.722849531095159 4.706722618921758 -13.607516240249288 0 0 0
1935 121 2 0.5642743535747531 -11.358172022407038 6.400977551858467 -14.81403572392906 0 0 0
1937 122 3 -0.5873570679835032 -11.321758154894061 5.486664136255202 -15.82889491272543 0 0 0
1938 122 1 0.2067791759992434 -11.563858815698921 4.534114197263148 -15.572544262094178 0 0 0
1939 122 2 0.05356560690380105 -10.990346937579424 5.89353128240787 -17.190328276130415 0 0 0
1940 122 1 0.06467016209498375 -11.222923113357881 4.991399692624095 -17.805101009954576 0 0 0
1942 122 2 0.5564576789769979 -9.490982393247455 6.423652579418872 -17.351678663072022 0 0 0
1944 123 3 -0.5538130456444353 -8.507631770075681 5.8248071356041375 -16.64232582092109 0 0 0
1945 123 1 0.2815330896425355 -8.773432206175025 5.11588249634127 -15.97310228803536 0 0 0
1946 123 2 0.1040933588354275 -7.154336399538601 6.337468197955953 -16.77318954970721 0 0 0
2872 180 2 -0.1930119365006744 -6.961549405709578 2.130261176912998 -13.692441628976148 0 0 0
2874 180 1 0.1348058893461175 -7.54802973518789 3.0613747899832324 -13.972199362552299 0 0 0
2875 180 1 0.08557898184737678 -7.413301277712675 1.2555304504790885 -14.251241961290217 0 0 0
1964 123 2 0.5438237077144749 -6.168367750038173 5.080507178692558 -16.911966444378084 0 0 0
1965 123 4 -0.5209111493683931 -6.26072282691681 4.091450490842922 -16.235181426375284 0 0 0
1966 124 3 -0.5878731233159384 -5.227249626467304 5.32067434575645 -17.87423613807173 0 0 0
1967 124 1 0.2035233211651084 -5.205433450868615 6.237557235846103 -18.30566357661405 0 0 0
1968 124 2 0.09465837415315662 -4.2899372810666385 4.247931055019811 -18.223533773010107 0 0 0
1969 124 1 0.1075088804156642 -4.961109335246612 3.3876296142882696 -18.42783215773685 0 0 0
1979 124 2 0.552475189918239 -3.212496861207925 3.9837450583875813 -17.066758568918903 0 0 0
1980 124 4 -0.5666840321048913 -2.9404011340067178 2.8457214310973318 -16.74944919746977 0 0 0
1981 125 3 -0.5634329124542787 -2.602056697512442 5.067275480801548 -16.546079067306902 0 0 0
1982 125 1 0.2366725273662009 -2.826157675002146 6.00284942180184 -16.902945647092956 0 0 0
1983 125 2 0.1200505085575485 -1.6053039374613682 4.833781880826273 -15.536631814712441 0 0 0
1984 125 1 0.1181351923769175 -1.4511772910084018 3.7452288724637133 -15.336297851338271 0 0 0
1985 125 2 -0.1381812278532039 -0.23992176562921771 5.461551244713099 -16.04214044144742 0 0 0
1997 125 1 0.06962487812495328 -0.30244333274478136 6.395083890132904 -18.719087304499155 0 0 0
2000 125 2 0.5634306956712409 -1.9676326093624983 5.705286689092848 -14.259811135147165 0 0 0
2002 126 3 -0.5648533203580481 -1.724952406533344 5.003722861394451 -13.107793422882207 0 0 0
2003 126 1 0.2968825705390694 -1.2977394704602816 4.066241824144334 -13.177407329466558 0 0 0
2856 179 2 0.09536506040448578 -1.0065697270972367 0.7881309977706221 -14.865384725079826 0 0 0
2857 179 1 0.1023033417575244 -1.1423913322011003 1.7209257744549369 -15.456623052184318 0 0 0
2864 179 2 0.5662765161929801 -2.218269309585357 0.5770588327888548 -13.824989377131786 0 0 0
2866 180 3 -0.6027721750594853 -3.303163687891645 1.3279676611437834 -14.14502209556294 0 0 0
2867 180 1 0.2709375612638867 -3.211994890671464 2.040884565120277 -14.877178816089456 0 0 0
2868 180 2 0.08989364030805976 -4.5944875071849385 1.2374271736829408 -13.375082680406694 0 0 0
2870 180 2 -0.07295420789836821 -5.476779222456991 2.3091252776269924 -13.948010542772906 0 0 0