LAMMPS data file via write_data, version 23 Jun 2022, timestep = 21

5041 atoms
7 atom types

-44.18505 44.18505 xlo xhi
-44.18505 44.18505 ylo yhi
-44.18505 44.18505 zlo zhi

Masses

1 1.00794
2 12.0107
3 14.0067
4 15.9994
5 32.065
6 24.305
7 55.845

Atoms # full

3247 217 4 -0.4441054757173826 1.907726777988785 1.1663481729634428 -32.07671148263314 0 0 0
3373 225 1 0.09431171764718572 -0.3807456435075212 -7.452649205795108 -25.58903868907627 0 0 0
3372 225 2 -0.07204866879945132 0.6496350036238467 -7.047560977806771 -25.60475175399519 0 0 0
345 24 2 -0.07147903068005178 12.151836078546543 -10.88609695813002 -26.520644561540514 0 0 0
346 24 1 0.09037297332865576 12.58244421749453 -11.4250804346018 -27.37914360441848 0 0 0
347 24 2 -0.112827773535757 10.077060405090005 -10.11238007486819 -25.384329082733498 0 0 0
349 24 2 -0.09050881198252388 10.733097881508561 -10.738229028758843 -26.46281487877174 0 0 0
350 24 1 0.07989140810509701 10.132171523585644 -11.122063957382256 -27.29715084998895 0 0 0
3403 227 2 0.02660230493941262 8.775625184165614 -6.440301982030778 -25.220473085666658 0 0 0
3407 227 1 0.2230447359668311 7.732916212677575 -7.149885792909815 -27.002400475364507 0 0 0
343 24 2 -0.0740702044556719 13.02862186666218 -10.370744215985134 -25.55176462435096 0 0 0
344 24 1 0.09266662877602523 14.12798514094664 -10.42636500185991 -25.675746087339366 0 0 0
283 20 4 -0.4404161936310479 27.853741121012987 -6.465654187704642 -25.53954484442011 0 0 0
3275 220 1 0.08269397932500089 -0.03322534131375754 -2.8059261405905804 -26.075084007714977 0 0 0
3277 220 2 -0.1262358825870893 -1.3036949930449635 -0.9681641662261258 -26.167490434348164 0 0 0
3279 220 1 0.104805850743032 -2.125865663039369 -1.476122031588373 -25.616389309654632 0 0 0
3280 220 2 0.02871698062060726 -1.6067094590817275 -0.8968943450312045 -27.70598120371353 0 0 0
3281 220 1 0.07612562020090111 -1.248901814015847 -1.7692377537798498 -28.296458929742 0 0 0
3283 220 3 -0.5632930313003814 -3.0885493835674804 -0.9146860918942953 -27.8388213287737 0 0 0
3284 220 1 0.2355808249879101 -3.8225405915026824 -1.342332960832897 -27.281637060272118 0 0 0
3285 220 2 0.6530639067902193 -3.6548528621772927 -0.35358283359855663 -28.968234976331704 0 0 0
3287 220 1 0.2505513989584013 -1.9284295220719179 -0.07644474910347279 -29.93103969461327 0 0 0
3289 220 3 -0.6785418314188856 -5.059103625002875 -0.24354901317364566 -29.00911103341396 0 0 0
3290 220 1 0.2293633897963533 -5.692231888299897 -0.6886090473395756 -28.35561824976853 0 0 0
3291 220 1 0.2311383882438754 -5.543251728131287 -0.2484492120175678 -29.900069627485465 0 0 0
3274 220 2 -0.1642517831929022 0.06315069544981236 -1.7049540113050756 -25.924066471255475 0 0 0
3276 220 1 0.09952266363910019 0.8375988923807308 -1.3449776961779385 -26.637644446252267 0 0 0
3295 221 1 0.3046446778131792 2.9908394444015296 -1.277971031043618 -25.445943573900635 0 0 0
3301 221 4 -0.5530607300524155 5.279861111672477 -0.8542977002933447 -25.614655760217698 0 0 0
3374 225 2 -0.07336979633347221 1.051999034092019 -6.16186089116112 -26.637099434583565 0 0 0
3375 225 1 0.08211103066852753 0.3248598017206182 -5.838360838032604 -27.40512245316149 0 0 0
3376 225 2 -0.07247663184343758 3.3170892677301596 -6.058500427023588 -25.714049909347423 0 0 0
3377 225 1 0.08066916924390911 4.362832982525876 -5.703496505405722 -25.7552747601295 0 0 0
3378 225 2 -0.0714679066126057 2.391923885180398 -5.707965575585237 -26.720240790902118 0 0 0
3379 225 1 0.08611321969398898 2.7195722691716924 -5.079552969389193 -27.570416119126513 0 0 0
3405 227 1 0.09223818768704044 9.7512747072721 -6.003940706579954 -25.52153986594738 0 0 0
3406 227 3 -0.5697519926129814 7.88654430862287 -6.3495327188528465 -26.407544908586345 0 0 0
3408 227 2 0.676706436441932 7.70422919877591 -5.183561307528972 -27.144805056928508 0 0 0
3409 227 3 -0.6770562142506179 8.202891108386272 -3.9478262100801667 -26.639502645256396 0 0 0
3410 227 1 0.2803009765831486 9.061926642418374 -4.014801434577733 -26.10333844354346 0 0 0
3411 227 1 0.3064506868220849 8.387458936077604 -3.265981477815687 -27.372060286466045 0 0 0
3412 227 3 -0.6852054260968095 7.020671679873748 -5.244424401967811 -28.3233325425841 0 0 0
3413 227 1 0.251990990857181 6.5841011929246 -6.0579381951031674 -28.781787469186362 0 0 0
3414 227 1 0.3290120160084308 7.074138794080733 -4.312343447758441 -28.765589875367397 0 0 0
3438 229 2 0.09113002906439867 8.846831977413656 -0.1761460695438568 -25.787898583032124 0 0 0
3439 229 1 0.1208037308882915 8.082459307699235 -0.9826734887054827 -25.89826279919897 0 0 0
3446 229 2 0.5567880653988496 10.20745665346248 -0.46964714691513004 -26.54208328798546 0 0 0
3447 229 4 -0.5191800635897226 11.26974202998847 -0.26733682136623177 -26.024015069631776 0 0 0
3448 230 3 -0.6118288109403955 10.000958502702984 -0.7194342826479525 -27.91268295735002 0 0 0
3449 230 1 0.2612258004925684 9.034505606573973 -0.7493382665354512 -28.27054769945533 0 0 0
3450 230 2 0.1209225367926221 11.026203648468785 -1.4580267484953806 -28.613639271825456 0 0 0
3451 230 1 0.1309739521112493 11.232480563104323 -2.3175275633331713 -27.94015810070323 0 0 0
3452 230 2 -0.1739679606161624 10.475694293916387 -1.9307219868827323 -29.899251667183027 0 0 0
3453 230 1 0.09900292377763917 11.26505511282748 -2.395572225727153 -30.532258287764236 0 0 0
3454 230 1 0.08273221664175849 10.040883148539368 -1.0993036616555005 -30.502420391049757 0 0 0
3455 230 2 0.6390427925124607 9.283173532504323 -3.0398790174613093 -29.597121520733502 0 0 0
3456 230 4 -0.4878245433583099 9.614491661911146 -4.220934542513566 -29.496175938503566 0 0 0
3457 230 4 -0.5449532613155708 8.169611591443132 -2.577518030514889 -29.25971800329937 0 0 0
3458 230 2 0.5693416964940425 12.270608187621551 -0.5920978413650622 -28.77071726421437 0 0 0
250 18 2 -0.1799364640130873 17.762842879627794 -4.66916690728822 -25.432203633298162 0 0 0
251 18 1 0.07045959574781893 18.171719374044798 -5.673938413035918 -25.690925587616114 0 0 0
252 18 1 0.1075518401454145 17.847068225612517 -4.039328903072462 -26.34842335841502 0 0 0
254 18 4 -0.4583825895693281 15.319523257408129 -4.506225901875582 -25.775689770779874 0 0 0
3459 230 4 -0.4907465018305717 13.270818772269653 -1.1892618668563464 -29.02847646642491 0 0 0
2176 149 2 0.1083117738331788 -8.983553972853974 5.10536263875131 -25.574991679823647 0 0 0
2177 149 1 0.1216601703353426 -7.962366419251627 5.578528156997763 -25.671908243550142 0 0 0
2178 149 2 -0.08563261768532367 -9.163690437101282 4.1511480795698725 -26.687656968990865 0 0 0
2179 149 1 0.1085385434759068 -10.089123161626018 3.5351493761501276 -26.521433473399142 0 0 0
2180 149 2 -0.2222362337553631 -9.214912290500992 4.786405114854665 -28.070524757257534 0 0 0
2181 149 1 0.08168500722275214 -8.299901164521128 5.427414314662053 -28.21830687430945 0 0 0
2182 149 1 0.07475335296941435 -9.199863269056918 4.009728446331058 -28.88695209869587 0 0 0
2183 149 1 0.08599394100023258 -10.11510778715571 5.445624469672731 -28.23123725013413 0 0 0
2184 149 2 -0.1913649283772136 -7.9450839266145135 3.223295044413403 -26.70994026534152 0 0 0
2185 149 1 0.07592527034802721 -7.0137065679676445 3.829951722958346 -26.903621394238108 0 0 0
2186 149 1 0.1158598861730891 -7.798729279549153 2.693172349260443 -25.7290787321895 0 0 0
2187 149 1 0.07350666906959495 -8.006797537628398 2.4506938645034517 -27.518572892885636 0 0 0
2188 149 2 0.562199041571374 -10.001510972007251 6.310894758982204 -25.263597863892326 0 0 0
3223 216 2 0.1046455869315882 -0.7739980546859401 4.352854697770183 -27.035127643952332 0 0 0
3224 216 1 0.1170821768970352 -1.1169792155011562 4.295103742307575 -25.97801539196708 0 0 0
3225 216 2 -0.148750676896455 -1.896641177005961 4.315915583766051 -28.010249567265205 0 0 0
3226 216 1 0.0846647351275088 -2.248783997078038 3.2507570240872634 -28.034965497945482 0 0 0
3227 216 1 0.09373073036637933 -1.506147307587984 4.465660382400336 -29.052920936512358 0 0 0
3228 216 2 -0.09042405919599467 -3.0674082561084934 5.180755167686995 -27.898927690872817 0 0 0
3229 216 1 0.07642940628299569 -3.8903086702193104 4.659351074351953 -28.469086430857452 0 0 0
3230 216 1 0.08061327351929481 -2.872578547839926 6.118098054984392 -28.50164836003555 0 0 0
3231 216 5 -0.1769420171206092 -3.4915190217739633 5.55034347658489 -26.133406850167475 0 0 0
3278 220 1 0.112353263298337 -1.262684933926094 0.06656667861620698 -25.75637004330058 0 0 0
3282 220 1 0.09054196692924435 -1.2690254623836834 0.046023450121699644 -28.19016172928663 0 0 0
3286 220 3 -0.6848982503402516 -2.9233892103069934 0.11318632066804195 -30.020660419096284 0 0 0
3288 220 1 0.2628924706559516 -3.3435942407786268 0.5795435080546673 -30.832557895210908 0 0 0
3219 215 2 0.556636717405674 0.9898130551072629 5.914588564132826 -26.283557827019695 0 0 0
3220 215 4 -0.5459245053539347 1.4804106402818267 5.104078792466525 -25.52875063276438 0 0 0
3221 216 3 -0.5885682814147312 -0.05525324709625702 5.661403971337768 -27.121727089833186 0 0 0
3236 216 2 0.5742603990077459 0.2384351960633535 3.1152695336805256 -27.308405390212563 0 0 0
3237 216 4 -0.5650492768278517 0.14370922084110574 2.174458207845887 -26.553826970410324 0 0 0
3238 217 3 -0.5875237999017782 1.051715939855847 3.1991922418325425 -28.36532208389504 0 0 0
3239 217 1 0.2547749116909144 0.9250909824202684 3.975512757771321 -29.007364425394076 0 0 0
3240 217 2 0.1095597343207754 1.8334281205394092 1.9987721981407043 -28.666266492813065 0 0 0
3241 217 1 0.1074855889600543 1.0876180846987793 1.176207106059131 -28.710485260045875 0 0 0
3242 217 2 -0.1826799750286165 2.6966247021429988 2.1918942179466487 -29.942206617301792 0 0 0
3243 217 1 0.09984731886203188 3.5381615435077958 1.468029625116338 -29.990174091341302 0 0 0
3244 217 1 0.07541601454538707 3.172727441363993 3.1947333366219777 -30.015304082312955 0 0 0
3245 217 2 0.6485717479845018 1.6346406587624407 1.9470081654129447 -31.155882210559746 0 0 0
3246 217 4 -0.4736807941148797 0.5691416712881762 2.5809880564023673 -31.098947893479398 0 0 0
3248 217 2 0.5765523706679075 2.832034015119577 1.6725263487504483 -27.437379558831218 0 0 0
3249 217 4 -0.5186175251628751 3.082305493238756 0.5224984958282256 -27.184291797424546 0 0 0
3250 218 3 -0.5836010001557844 3.4007982422167777 2.791823135223574 -26.956732258738796 0 0 0
3251 218 1 0.2500624692528604 3.05087759936928 3.653208485577063 -27.364050818960745 0 0 0
3252 218 2 0.09917789257417545 4.310774994626521 2.7294563720619665 -25.827456433746512 0 0 0
3253 218 1 0.1044041711224429 5.123651773352 2.052521741876411 -26.170285966817808 0 0 0
3254 218 2 -0.2303464358505888 4.804271251031381 4.213666431394376 -25.742254516227966 0 0 0
3256 218 1 0.07119887082296464 5.313811316537655 4.513145838155368 -26.691822158447753 0 0 0
3257 218 1 0.1065009017706819 3.975693973763005 4.944213363163965 -25.5638416655382 0 0 0
3112 208 1 0.2957896867819189 12.266624116056311 5.391942441584847 -29.393016450094272 0 0 0
3113 208 3 -0.7072107313753848 10.927742224012661 5.73030104481621 -27.17311358235957 0 0 0
3114 208 1 0.3349252602491827 10.439579615705817 6.132679602556915 -26.342395695133845 0 0 0
3115 208 1 0.323998329425405 10.871854065015077 4.902881991149174 -27.76861533906216 0 0 0
3440 229 2 -0.1439185840080806 8.31077891209275 1.274209139591658 -26.16087882982242 0 0 0
3441 229 1 0.0902798282562727 7.248127847041685 1.2146147823562967 -26.485913299944944 0 0 0
3442 229 1 0.101121196700066 8.864318146641327 1.6862706323364884 -27.036323602880973 0 0 0
3460 231 3 -0.5767321464783851 12.103629472116484 0.7912589585992307 -28.868620085923535 0 0 0
3461 231 1 0.3141418918121165 11.20035910378457 1.2855418820941367 -28.689472237510948 0 0 0
3467 231 2 0.6256796566389086 11.34607209232584 3.396630252415649 -29.77260292253037 0 0 0
3468 231 4 -0.5502201569938118 10.740744383840301 3.000500391098399 -28.736755053248352 0 0 0
3469 231 4 -0.4943318932880005 10.968885589843474 4.363336980883125 -30.478921610477975 0 0 0
3473 232 1 0.3062678080458894 12.399294701546859 1.2989680858971262 -26.545077834273933 0 0 0
3475 232 1 0.08530529700291613 12.524219178269588 3.8311570283919534 -25.612802083380775 0 0 0
224 16 2 -0.1921104166702204 18.85994549905327 3.5047410731775983 -27.128091256397152 0 0 0
226 16 1 0.1020048978247209 18.342011328779545 2.788607696469844 -27.82135254134618 0 0 0
227 16 1 0.1013030255917032 18.183302124622692 3.6659611092573345 -26.246398926301115 0 0 0
3110 208 3 -0.6812729248498071 12.745398142616981 6.043877601655486 -28.779255116031806 0 0 0
3462 231 2 0.1001578688192871 13.253674426254799 1.6625988604429602 -29.075556636335076 0 0 0
3463 231 1 0.12050745851329 14.051796886408871 1.0093725238243236 -29.491746300232517 0 0 0
3464 231 2 -0.1710449724249294 12.817775817848476 2.79486510308483 -30.059112098747264 0 0 0
3465 231 1 0.07685693687646548 12.845425759757115 2.437736226526035 -31.110298635388983 0 0 0
3466 231 1 0.1025893852981949 13.557037528021091 3.6195261011462128 -30.005101490671127 0 0 0
3470 231 2 0.5852165798476184 13.661809231416576 2.3956909293111828 -27.69900294298004 0 0 0
3471 231 4 -0.503557286354388 14.5231374772055 3.2108204189389777 -27.83094519580856 0 0 0
3472 232 3 -0.5472515619909554 13.090366852068218 2.056234048334676 -26.525234499943508 0 0 0
3474 232 2 0.09103389501754801 13.177798743832918 2.966240871595115 -25.36652822009385 0 0 0
3498 233 1 0.09734540451096274 16.401858004529604 5.918675373972202 -25.978826159883713 0 0 0
215 16 2 -0.13753694037051 20.227288377345136 1.8606548850813447 -25.742256314602404 0 0 0
216 16 1 0.08659077097830649 19.66263183170905 1.025558586535606 -26.2235686069075 0 0 0
217 16 1 0.1027182388527656 21.26883106727267 1.4750139391838109 -25.606002602209063 0 0 0
218 16 2 -0.08165812285815803 20.235946196647802 3.0098732114634097 -26.72515348299115 0 0 0
219 16 1 0.08929625079775691 20.795344843909938 3.8679029398813394 -26.288630170107382 0 0 0
220 16 2 -0.2178408545961159 20.958137902260557 2.51895882802542 -27.982768265442513 0 0 0
221 16 1 0.07924504616397125 21.99380107002298 2.1544491322646886 -27.75054245839278 0 0 0
222 16 1 0.08634831665474757 20.401049375563446 1.6663617777536073 -28.45626365109938 0 0 0
223 16 1 0.0770340847449659 21.05200544813944 3.320064202590493 -28.758167461833178 0 0 0
225 16 1 0.07751874302809222 18.92249500390804 4.482732703988465 -27.675016406148817 0 0 0
2189 149 4 -0.5320569958741613 -9.807944070902986 7.36428836787502 -25.83000909301992 0 0 0
2234 153 3 -0.5886837214079281 -8.310698325000786 10.579503888087059 -25.37815346389136 0 0 0
2236 153 2 0.100898820881596 -8.725086984713474 11.677553895135974 -26.238018639985924 0 0 0
2237 153 1 0.1358725137777891 -7.827371614981334 12.027661955633127 -26.802561799021394 0 0 0
2238 153 2 -0.1664557245114068 -9.814166194440661 11.04680644699155 -27.168617677564324 0 0 0
2239 153 1 0.07217794764792108 -10.320263524312802 11.805381072547785 -27.80779443368493 0 0 0
2240 153 1 0.0970961829797955 -10.61113770052815 10.542395170595363 -26.572215454938505 0 0 0
2241 153 2 0.6027294717473758 -9.07583639473123 10.069570542697234 -28.166243485736214 0 0 0
2242 153 4 -0.4908864986478332 -8.078220251759454 10.367986549326506 -28.768690900532363 0 0 0
2243 153 3 -0.6531434934686763 -9.766510550810324 8.926731486616754 -28.395854958809558 0 0 0
2244 153 1 0.2651893782540061 -10.528790996542645 8.515356223207279 -27.841288501236633 0 0 0
2245 153 1 0.2614734439491517 -9.370231585436805 8.187151926771264 -28.98067725405738 0 0 0
2307 158 1 0.3341047579072455 -5.38769943675783 12.389609834656087 -26.23324264836453 0 0 0
2308 158 2 0.06425963116346084 -4.262652607607458 11.588732723975813 -27.933383108794995 0 0 0
2309 158 1 0.1038494131161598 -5.080569906090655 10.828729037305978 -27.99960943212946 0 0 0
2310 158 1 0.1301129382699991 -4.100506650265656 12.051331750321628 -28.932895640922712 0 0 0
2311 158 2 0.5136363340070107 -2.9432022675673886 10.956440543646464 -27.34139702915984 0 0 0
2312 158 4 -0.5330268345454091 -2.3192847867265147 10.18506534292786 -28.03669838561573 0 0 0
2313 159 3 -0.5497734980517534 -2.558555047556223 11.316160319799316 -26.087378615498057 0 0 0
2314 159 1 0.2914369797350918 -3.2009729655182584 11.899062165854884 -25.549551640885184 0 0 0
2315 159 2 0.08796980964310436 -1.564285214188689 10.501175784773997 -25.413845262931954 0 0 0
2316 159 1 0.09144338482189537 -1.5145171894705751 9.5308752682947 -25.97262585961329 0 0 0
2317 159 2 -0.1241802189670424 -0.18931542340648264 11.271184214650438 -25.525986553060914 0 0 0
2321 159 1 0.1296356869102738 -0.2825638046379346 11.429171753123065 -27.766824173924743 0 0 0
3222 216 1 0.2119529730895315 -0.4657680670852075 6.44768413900553 -27.619331843381012 0 0 0
3232 216 2 -0.1328216268132016 -2.659711474467673 7.186100603084185 -25.99717327341291 0 0 0
3233 216 1 0.0959052101456862 -1.6269348336538134 7.127422090247722 -25.55161817895669 0 0 0
3234 216 1 0.08581462528745022 -2.4912906088805378 7.713373336350642 -26.98064934856012 0 0 0
3235 216 1 0.09210656824505592 -3.175705342198742 7.96420067072394 -25.369820424139863 0 0 0
2320 159 2 -0.1359016735598741 0.4218548522172261 11.11194272661912 -26.956529148704526 0 0 0
2322 159 1 0.08938854871782925 0.6218996642364893 10.030786325159156 -27.136567244961714 0 0 0
2323 159 2 -0.1305418771131571 1.787733789501969 11.892444057266461 -27.085081970882374 0 0 0
2325 159 1 0.1225690586234528 2.608017868722096 11.345607580492908 -26.560545830693023 0 0 0
2326 159 2 0.04551185353634284 1.9793884735303087 11.953115688778727 -28.642550137115293 0 0 0
2328 159 1 0.1036944447185157 1.418861101846593 11.183300052499538 -29.221572683618128 0 0 0
2329 159 3 -0.6614098335296398 3.4148950087401526 11.60587079086402 -28.900891787893144 0 0 0
2330 159 1 0.2224519783780669 3.8065226696664545 11.867454438923692 -29.826419491962188 0 0 0
2331 159 1 0.2314138274250827 4.178408420173762 11.97100594310035 -28.298956321456593 0 0 0
2332 159 1 0.3576688834991869 3.62724758869867 10.367302066551254 -28.917280633931696 0 0 0
3136 209 1 0.3489876473631915 5.279947551358781 8.977290237728777 -25.834665159305167 0 0 0
3209 215 3 -0.574994652101258 2.5287477441814286 7.64500679236061 -25.430641146505778 0 0 0
3210 215 1 0.2430579952408481 3.542592147176096 7.5709674674405925 -25.5057802514365 0 0 0
3211 215 2 0.09634135442427767 1.721594404218715 7.28997929630678 -26.59640856704921 0 0 0
3212 215 1 0.08127654370497836 1.0061891029045982 8.128391877331953 -26.76030558052441 0 0 0
3213 215 2 -0.179240523791505 2.7178186717244093 7.110800851147871 -27.80473899263314 0 0 0
3214 215 1 0.07779219421513928 2.1400915271316054 6.859133564780298 -28.716728077165122 0 0 0
3215 215 1 0.06449726225736335 3.40235807826797 6.247669667324824 -27.645620047454557 0 0 0
3216 215 2 0.6287256623242957 3.562131323723215 8.413149451559859 -28.067041461236627 0 0 0
3217 215 4 -0.5719370777485778 4.3558403368369065 8.772036028184038 -27.180781425460737 0 0 0
3218 215 4 -0.5729284507072071 3.2775142310458834 9.12231984506615 -29.149275120014796 0 0 0
3100 208 1 0.121671247421782 11.730502528063887 10.056056753175543 -25.819809675451516 0 0 0
3107 208 3 -0.5563505019650169 12.265061877667561 7.6795616405259475 -27.055054433006465 0 0 0
3108 208 1 0.3020731067462084 11.708506311188383 7.914529104026242 -26.22115914920467 0 0 0
3109 208 2 0.6802893397647534 11.967450443266623 6.463622219028308 -27.68037722128743 0 0 0
3137 209 3 -0.6978625972783369 7.842788148227622 8.286287671844544 -25.685902703899664 0 0 0
3138 209 1 0.3353046641877068 8.817039904434424 7.960114475736787 -25.47464607950246 0 0 0
3139 209 1 0.2543805506024461 7.354752184038596 7.591458235942675 -26.260848775370874 0 0 0
3098 208 2 -0.1271072881926837 12.749704851988934 10.44820780791927 -26.03575482469676 0 0 0
3099 208 1 0.09337633034901824 12.686829335416332 10.93814402103708 -27.03267153786216 0 0 0
3101 208 2 -0.1510870054954884 13.806475574983441 9.289307169621845 -26.03816322882555 0 0 0
3103 208 1 0.07014411223166142 14.830567058282478 9.715858160513012 -26.069751194386164 0 0 0
3104 208 2 0.007822266219909425 13.580878102063144 8.327285027717588 -27.26824627405529 0 0 0
3105 208 1 0.08795839166691172 14.267498352784962 7.459414055377337 -27.318938197362073 0 0 0
3106 208 1 0.0726949635904071 13.564310122109044 8.84555508759063 -28.251174644639207 0 0 0
3111 208 1 0.2379795740623425 13.135761263612851 6.751828228971881 -29.40344856700819 0 0 0
2246 153 2 0.5394085540306516 -9.301247198524981 12.812866751927169 -25.249227699245615 0 0 0
2247 153 4 -0.5033503694870861 -8.967266798843813 13.951373206258573 -25.43846895980706 0 0 0
2301 157 2 0.06173717539790376 -5.123172531106615 14.887882777586247 -26.18377758237299 0 0 0
2302 157 1 0.0964199991531732 -6.1876419247250505 15.075093537000104 -26.455017476836446 0 0 0
2303 157 1 0.1195109415753858 -4.5826859693691295 15.850947275995708 -26.02127304026133 0 0 0
2304 157 2 0.5729730810480526 -4.437517565527601 13.91985796385656 -27.241464741762535 0 0 0
2305 157 4 -0.4866717694434777 -3.8315831128059754 14.375693402656152 -28.165535974772414 0 0 0
2306 158 3 -0.594510664345324 -4.815705182290533 12.629323590240666 -27.078447252758984 0 0 0
2324 159 1 0.1312032100087141 1.7674957645255371 12.924534190305074 -26.655503438010978 0 0 0
2327 159 1 0.08548025085124034 1.8146065570806034 12.956824804285443 -29.09069470261158 0 0 0
3117 208 4 -0.5025782551939454 11.82638037394717 13.278236404283634 -25.8082578290398 0 0 0
423 28 2 0.6369273900473837 6.102943155402566 -20.46610526968009 -21.306070410355062 0 0 0
424 28 3 -0.6877260751372748 5.530534707595538 -19.810724728796526 -22.3967475460363 0 0 0
425 28 1 0.2469338841902703 4.591767816904051 -20.063447861523905 -22.692810851598487 0 0 0
426 28 1 0.2439973905855305 6.13292697128183 -19.032867929326606 -22.622813056297893 0 0 0
427 28 3 -0.6880757135379836 5.659453418602639 -21.71361542896849 -20.9176420903521 0 0 0
428 28 1 0.2345909336127791 5.9993747034203 -22.239203394958604 -20.105819286096807 0 0 0
429 28 1 0.2496401244439459 5.065988301681269 -22.09043807858728 -21.653946814629805 0 0 0
416 28 1 0.08046906668474009 9.307156556510217 -18.944526980817773 -19.338417699969458 0 0 0
421 28 3 -0.550481811387332 7.119925179211881 -19.909347319456664 -20.530787374077452 0 0 0
422 28 1 0.2203211499241399 7.4453963566468415 -20.47145922620154 -19.750253617547806 0 0 0
370 25 1 0.2013790518418153 14.980548565045575 -19.6248838611615 -22.684219777042955 0 0 0
372 25 1 0.1985638180279655 14.20518334220394 -19.289647786460712 -21.291669702932953 0 0 0
355 25 2 0.116294859176738 12.185905561294003 -13.163041412482098 -21.741524462574958 0 0 0
356 25 1 0.09202550513410672 12.174158168706613 -13.367726077256407 -22.826974784732894 0 0 0
358 25 1 0.08651106958874784 11.687199908250323 -15.094209577034416 -20.76475299971436 0 0 0
373 25 2 0.5321655168450458 10.800627248163945 -12.760774851443976 -21.059812363175226 0 0 0
375 26 3 -0.4339003325470512 9.653636940828362 -13.112264881113589 -21.620650692159803 0 0 0
376 26 2 0.004902332589192444 9.441308781011719 -13.71116038933195 -22.93422958652812 0 0 0
377 26 1 0.06368605813379324 10.245048853757641 -13.457241996489348 -23.662618480624328 0 0 0
378 26 1 0.07255995086182986 9.436923171663308 -14.815512182706932 -22.78371860229354 0 0 0
379 26 2 0.09468436060568114 8.43483473111124 -12.777966716411386 -20.909068858214372 0 0 0
381 26 2 -0.1486658471777038 7.296787166287634 -13.204494233451783 -21.92643896410692 0 0 0
383 26 1 0.0873211161520718 6.90561424689688 -14.22351800127827 -21.7203418776331 0 0 0
384 26 2 -0.1439973689034143 8.006086182544491 -13.151118694954128 -23.327120996141687 0 0 0
386 26 1 0.06197215093418003 7.519210627223423 -13.764644952062692 -24.115871231917822 0 0 0
387 26 2 0.5711031650155237 8.319815939900499 -13.55701136528942 -19.515278773720933 0 0 0
388 26 4 -0.5523597828384164 9.034071930961968 -14.5427082221106 -19.381078840664493 0 0 0
415 28 2 -0.1297581136113805 8.39505190733938 -18.302783735902857 -19.2896614752451 0 0 0
417 28 1 0.1146164127456947 8.76467049053477 -17.256025731897537 -19.313915570590396 0 0 0
418 28 2 0.01881418950595726 7.570797941209246 -18.500175462518936 -20.620514978503582 0 0 0
419 28 1 0.06783571686768136 8.173618547482624 -18.41391454513134 -21.5520369536998 0 0 0
420 28 1 0.07980718919428417 6.679221494948412 -17.844616317747292 -20.72002027693609 0 0 0
321 23 2 -0.1472719352201391 18.362301551720392 -12.896846493216467 -20.434071469829995 0 0 0
322 23 1 0.06642518210054681 17.93907178536569 -13.589334902061312 -21.196637417210848 0 0 0
323 23 1 0.09652879546405084 17.738582634663942 -13.005740791345946 -19.51625577867721 0 0 0
357 25 2 -0.135149777877023 12.600285631050196 -14.48402781931188 -20.962640534578007 0 0 0
359 25 1 0.1072898262986173 13.05961476164739 -14.289986220190364 -19.965727953709774 0 0 0
360 25 2 -0.1440706921185851 13.578930488574454 -15.257701737197001 -21.90933907255593 0 0 0
361 25 1 0.112836671887875 14.602026975587227 -14.831351058977997 -21.846849085576945 0 0 0
362 25 1 0.09010547946607804 13.283459912457886 -15.227198548929085 -22.984506002506247 0 0 0
363 25 2 -0.1609778377311282 13.6320549409579 -16.77188775049436 -21.499273663902468 0 0 0
364 25 1 0.08497863330021177 13.968451358135777 -16.878757846021983 -20.438781572596323 0 0 0
365 25 1 0.07379127181948335 12.624581553405068 -17.26855224957347 -21.565893875194085 0 0 0
366 25 2 0.0165287510414807 14.651656186106683 -17.405902928310834 -22.45874610522567 0 0 0
367 25 1 0.08030683854949769 15.654220801422653 -16.91322128277514 -22.455477267344815 0 0 0
368 25 1 0.08211557665843168 14.291850573178586 -17.560042004479314 -23.50355093079134 0 0 0
369 25 3 -0.659957282688051 14.911020694873336 -18.85199035239065 -21.95705383096666 0 0 0
371 25 1 0.1998141086732275 15.811473282669791 -19.033349759905292 -21.42225897219738 0 0 0
324 23 2 -0.1496033507282056 19.879023563177956 -13.143009720665864 -20.131698149379023 0 0 0
325 23 1 0.090139999076812 20.458042738082884 -13.252134261859126 -21.07295122226956 0 0 0
326 23 1 0.06492961390945187 20.08539679113266 -14.056649394225586 -19.533977178958068 0 0 0
2038 140 1 0.08133403694741331 -6.686370720132181 -7.048295880482386 -21.67577492118248 0 0 0
2057 142 2 0.1064822474991562 -9.011125946196147 -6.438092575408052 -19.570760782207657 0 0 0
2059 142 2 -0.1431887154145137 -9.336889329841371 -7.984762083191769 -19.735302414672464 0 0 0
2060 142 1 0.1020232393743559 -8.447168644622868 -8.54709912265109 -19.369485011505393 0 0 0
2061 142 1 0.08371141483547358 -9.415806895858088 -8.205604967270919 -20.82792824837653 0 0 0
2062 142 2 -0.1535212435857685 -10.625627097168875 -8.501344323788153 -19.049995498413146 0 0 0
2063 142 1 0.08637641109462205 -10.79788073879212 -9.559273325445915 -19.3410975828671 0 0 0
2064 142 1 0.1008066382303177 -11.505175478390226 -7.9317940636731645 -19.40881432206765 0 0 0
2028 140 2 0.0004368077059450715 -4.165958271198835 -7.809532268455511 -19.483163471285692 0 0 0
2029 140 2 -0.06740222463358106 -3.962244016690268 -9.191247018163894 -19.77710575049095 0 0 0
2030 140 1 0.08678896727901864 -3.2184534851505093 -9.786972397947212 -19.21603697060091 0 0 0
2031 140 2 -0.09527873743306053 -4.754870874551909 -9.785383276009114 -20.78456006611305 0 0 0
2032 140 1 0.06984533636643912 -4.6483729936669125 -10.866259577848256 -20.99653397921874 0 0 0
2033 140 2 -0.0795145335261018 -5.702704504979312 -9.005654970144267 -21.498621249674688 0 0 0
2034 140 1 0.07957543196412839 -6.316607904638586 -9.474324050976373 -22.290372502552405 0 0 0
2035 140 2 -0.06424266791962481 -5.142227067454816 -7.019756434821299 -20.15705735331844 0 0 0
2037 140 2 -0.07135974409266554 -5.905741096879458 -7.640425257868488 -21.1649639705906 0 0 0
3350 224 1 0.06762153937822252 -0.4552972894674919 -7.064401142644375 -22.628734437415634 0 0 0
3357 224 3 -0.6411718363550427 -2.511072973073816 -6.985693831312558 -24.181946689679624 0 0 0
3358 224 1 0.2085449419023247 -2.082895467690869 -7.840679992069449 -23.81682915926973 0 0 0
3359 224 1 0.2526883287223092 -3.174821206903172 -7.329094755678377 -24.88561394631941 0 0 0
3360 224 2 0.5387224531239295 1.4937098604608228 -6.8077662663442435 -20.887630725020117 0 0 0
3361 224 4 -0.4887246220771309 1.4705724923147925 -7.8019347035316695 -20.209662061565798 0 0 0
3362 225 3 -0.5900273204349366 2.492802039328459 -6.458440343149607 -21.721203332486414 0 0 0
3364 225 2 0.109973529547021 3.4299625279305666 -7.482513956035708 -22.129738395709833 0 0 0
3365 225 1 0.108493237954744 2.859991874401095 -8.437528257634211 -22.09061677150254 0 0 0
3366 225 2 -0.1558306301104662 3.969615507703244 -7.076950081386919 -23.555928060413702 0 0 0
3367 225 1 0.08101019066698482 4.701212043690994 -7.843784416817688 -23.90706960129859 0 0 0
3369 225 2 -0.00265095800772021 2.871012396596477 -6.867156748458402 -24.628921632913983 0 0 0
3370 225 2 -0.07538340740967073 1.555254022521151 -7.410708804890388 -24.584912299232375 0 0 0
3371 225 1 0.07708179573289586 1.2450878213649221 -8.08903691278982 -23.76873230266124 0 0 0
3380 225 2 0.5659123346443571 4.728152213339545 -7.5509275147228925 -21.168408252009563 0 0 0
3381 225 4 -0.5206965144802859 5.54131350298254 -8.432246592498178 -21.346225280823923 0 0 0
3382 226 3 -0.5855732509879167 4.858717254591742 -6.54927409669355 -20.287710091462188 0 0 0
3384 226 2 0.1228975299856587 5.9126307321099425 -6.500791168667019 -19.312526058248004 0 0 0
337 24 2 0.1192441668317379 11.776931131976568 -8.684289095948026 -22.46595542755595 0 0 0
338 24 1 0.089395544219741 11.715675522025359 -8.141805597370881 -21.509668387321504 0 0 0
339 24 3 -0.4995215897216509 10.652416006116797 -8.972196413258144 -23.14081867226231 0 0 0
340 24 1 0.2236985734971052 9.684569014280966 -8.830739253596489 -22.86273795886568 0 0 0
341 24 2 0.1900584827462822 10.925821146934922 -9.618628109702964 -24.319716285019993 0 0 0