LAMMPS data file via write_data, version 23 Jun 2022, timestep = 21

5041 atoms
7 atom types

-41.54465 41.54465 xlo xhi
-41.54465 41.54465 ylo yhi
-41.54465 41.54465 zlo zhi

Masses

1 1.00794
2 12.0107
3 14.0067
4 15.9994
5 32.065
6 24.305
7 55.845

Atoms # full

2255 154 2 -0.1412909358123547 3.0891875665564807 -20.824172317586452 -22.996100922759766 0 0 0
2258 154 2 0.05713604541789818 1.5273533653476732 -20.557088745263993 -23.088351641854455 0 0 0
2260 154 1 0.09454314662421244 0.9538450282825295 -21.517492900325415 -23.124684924961972 0 0 0
2261 154 3 -0.5709247874955685 1.2773163776663843 -19.905467766335644 -24.357242388502613 0 0 0
2262 154 1 0.2193303067333432 1.7392903285763666 -20.03013464279853 -25.28416699171396 0 0 0
2263 154 2 0.6270019674610207 0.32151830335937903 -19.061229009815975 -24.655451655703896 0 0 0
2264 154 3 -0.6782166802648741 -0.55389314615878 -18.522786463668204 -23.69981637447709 0 0 0
2265 154 1 0.2424249177620398 -0.7451581128679713 -18.96170040270399 -22.803915727241495 0 0 0
2266 154 1 0.2320624768910697 -1.3430538783950412 -17.966898929269696 -24.03222925664203 0 0 0
2267 154 3 -0.6618850094092759 0.10640221945637682 -18.656791725194562 -26.039595645374312 0 0 0
2268 154 1 0.2198355927353909 0.17920354351713047 -19.386677966678846 -26.743342318557616 0 0 0
2269 154 1 0.22171914487695 -0.8696037549516885 -18.366134950943632 -26.11845577513686 0 0 0
2283 155 1 0.1019258516543633 0.6501429849016195 -16.125383837671528 -23.07431066338521 0 0 0
2285 155 1 0.1105551408524252 1.0218995183539308 -16.219360361126487 -25.57602535948376 0 0 0
2251 154 1 0.1202574192890872 5.70683349201359 -20.701891678710933 -22.96483019314645 0 0 0
2252 154 2 -0.1437389009598214 3.816465581692707 -19.502171805321723 -22.57693802775796 0 0 0
2253 154 1 0.09502340521868122 3.7578837793189814 -18.75580882590303 -23.402082920099286 0 0 0
2257 154 1 0.0795924932684579 3.4848697065449277 -21.17811035153796 -23.972460425897903 0 0 0
2270 154 2 0.5541573176105367 6.230963516830623 -18.58640994318563 -22.450644736580426 0 0 0
2271 154 4 -0.517902683561649 7.317927849674745 -18.669447498437204 -22.971586427398837 0 0 0
2274 155 2 0.1169690259825543 6.21807066309987 -16.200576328753723 -22.460934143325613 0 0 0
2275 155 1 0.1093006601038431 6.475904197167433 -16.331869088043998 -23.528866562320555 0 0 0
2280 155 2 -0.08497039685114188 2.7013794319347335 -15.508669597902319 -22.649892921076514 0 0 0
2282 155 2 -0.06263396636628824 1.6443767556132387 -15.89423802322994 -23.501490093640907 0 0 0
2284 155 2 -0.05214623536267796 1.8603161237429584 -15.97335708410916 -24.902538344395328 0 0 0
2288 155 2 -0.0725397854208809 3.1553587226736246 -15.767219410604739 -25.446317472313048 0 0 0
2447 167 4 -0.4652228457486952 1.1275273747412404 -9.912240473985555 -23.230755892848965 0 0 0
2277 155 1 0.08012083924080973 5.666160349365988 -14.064462391773024 -22.461263678740554 0 0 0
2279 155 2 -0.002384688158228163 4.003224145400282 -15.324758914603755 -23.20218995692818 0 0 0
2286 155 2 -0.07085094975221473 4.248440879362938 -15.49922345450424 -24.59729620705822 0 0 0
2287 155 1 0.08170745723465231 5.2750352334479 -15.454372457208818 -25.002348954775936 0 0 0
2289 155 1 0.0858843582630523 3.308447734181734 -15.849284815950826 -26.539102889158208 0 0 0
2398 163 1 0.1125071461170715 7.187362960987283 -11.296249742748657 -22.56554069657998 0 0 0
2507 170 1 0.09796398879092293 -7.704645473555002 -7.895102667360904 -22.407733705579957 0 0 0
3746 250 2 0.1084048748202752 2.2971214303902174 -3.3790207649484834 -23.338292690758458 0 0 0
3747 250 1 0.1340123432724783 2.3952328969191634 -3.4282355563441627 -24.44592403049688 0 0 0
3751 250 1 0.07969197993421114 3.1939608020196486 -5.354912116074424 -22.84514030714938 0 0 0
3752 250 2 0.5427081925878157 0.7730248906880709 -3.664480157810846 -22.854245010982535 0 0 0
3753 250 4 -0.4902113148721488 0.1088510273908924 -4.38326071450881 -23.553765999581877 0 0 0
3769 251 1 0.07473921220164433 -2.3663104990951127 -7.521266621390418 -22.912653043604813 0 0 0
3748 250 2 -0.2051647343214027 3.3068010307595372 -4.285763069883231 -22.558253244062126 0 0 0
3749 250 1 0.1040247740508219 4.3676027102013855 -3.987695397659474 -22.73920483984925 0 0 0
3780 252 1 0.06952684807944307 -4.002706384888183 1.5352543471269386 -22.670323873149027 0 0 0
3783 252 1 0.1074840819345329 -4.128952212405004 -0.7953679579414029 -23.574212955662315 0 0 0
3729 249 2 0.1271316080660154 2.5257045075690625 0.43446818342780497 -22.91869858186232 0 0 0
3730 249 1 0.1356869395782432 1.7560519555009553 1.1570671369189869 -23.27125058436076 0 0 0
3742 249 2 0.5517370332876725 2.3401320046273644 -0.9793033169222956 -23.669198278582712 0 0 0
3743 249 4 -0.4964269425737206 1.9858950032189324 -0.9514687675960665 -24.81440408867429 0 0 0
3744 250 3 -0.5868207412184985 2.742713837195584 -2.051624855180194 -22.971726625907998 0 0 0
3773 252 2 0.03415505082570863 -1.9642981006138522 -1.1873871345529172 -23.079745864921797 0 0 0
3774 252 1 0.1203344172260047 -0.9381040827268501 -0.8063113810532231 -23.298267640968636 0 0 0
3775 252 1 0.08497640034199355 -2.015197565589631 -2.262185122982071 -23.35914822808212 0 0 0
3778 252 2 -0.1450290926144677 -3.096153578713581 0.8889621711682661 -22.626978903410897 0 0 0
3779 252 1 0.1097866422521244 -2.232989665377223 1.5639241427843016 -22.833882947640657 0 0 0
3781 252 2 -0.1358405416913029 -3.1415981547223195 -0.2881307996377444 -23.64379869489057 0 0 0
3782 252 1 0.07470074869335974 -3.0041803380875907 0.011801773334091497 -24.710093061679245 0 0 0
3731 249 2 -0.1387286635261639 4.046382730768144 0.8381375983031242 -23.12894126259232 0 0 0
3732 249 1 0.08382341432666721 4.409625583287794 0.5077774161849071 -24.1255915362981 0 0 0
3734 249 2 -0.1463551104477056 4.190315065817956 2.382068947402594 -22.936033635171224 0 0 0
3735 249 1 0.09159809328784632 5.270745577641932 2.6328099617104734 -22.871451064299585 0 0 0
3737 249 2 0.5784196424351467 3.5612936765699037 3.27308568898541 -24.083639508747527 0 0 0
3740 249 1 0.2170411153217088 5.171002633495775 2.69558675299771 -25.347447370450773 0 0 0
3738 249 4 -0.4611244442248058 2.572701213971193 3.9318949526077414 -23.948988465499415 0 0 0
3739 249 3 -0.6555808251147262 4.291056478814093 3.2089604256324966 -25.21719092225204 0 0 0
3741 249 1 0.2656580525015784 4.116937482444206 3.6930611212042157 -26.10496438249943 0 0 0
2193 150 1 0.1126731925409038 1.7739739421901926 -22.544417731593366 -17.409896464767574 0 0 0
2198 150 4 -0.4640667319358973 -0.1409361577845316 -22.79347283579358 -19.285673690655614 0 0 0
2238 153 2 -0.1747442907503666 5.769134948337808 -23.282734850424188 -19.047587352132783 0 0 0
2239 153 1 0.07869838713925287 6.0855289255357725 -23.94815710650918 -19.883362411973437 0 0 0
2240 153 1 0.09496810416161713 4.656851716207005 -23.220930396056996 -19.122516097443178 0 0 0
2241 153 2 0.5964438804283833 6.2029616226107 -23.907804588989986 -17.665187364713812 0 0 0
2242 153 4 -0.4931006842730752 7.311117940026664 -23.817624623024802 -17.214604483546168 0 0 0
2243 153 3 -0.6557232204993851 5.214831846767138 -24.594848013921276 -17.04381390256415 0 0 0
2244 153 1 0.2474149850718427 5.277799488036442 -24.947195036042476 -16.081027500710437 0 0 0
2245 153 1 0.2274665625463937 4.232485628641604 -24.669005455284424 -17.33390707254042 0 0 0
2150 147 3 -0.6595970104135012 -5.658908523835149 -19.591220318827833 -16.049166087948187 0 0 0
2152 147 1 0.2516513458421932 -6.3195010139501795 -19.57067410110897 -16.835884508098847 0 0 0
2528 171 1 0.1082922181174697 -5.549991730080179 -16.331803215559 -19.210205377693246 0 0 0
2530 171 3 -0.6796285035700108 -7.1737502135544435 -16.107645433802137 -17.8231364279775 0 0 0
2531 171 1 0.226140922245492 -7.74604176593283 -16.988795007329692 -17.963825589217695 0 0 0
2532 171 1 0.3342727701559886 -6.601868600685006 -16.388955535533373 -16.956756953864208 0 0 0
2192 150 2 0.1031671460999526 1.4040563907222627 -21.51803653159687 -17.198375790299608 0 0 0
2194 150 2 -0.1629149345667157 -0.1369630591834676 -21.464209279995124 -17.205956871857648 0 0 0
2195 150 1 0.1138470451388391 -0.5078455696507047 -20.46036755123707 -16.911830019027544 0 0 0
2196 150 1 0.1116558967121875 -0.5560581009607634 -22.155679527537593 -16.44554101458607 0 0 0
2197 150 2 0.6397677786192278 -0.7150836931057081 -21.88304356360512 -18.67275261995643 0 0 0
2199 150 4 -0.4666491467036401 -1.801213579773773 -21.40201161201819 -19.025357286208614 0 0 0
2200 150 2 0.5863564972896842 2.1095021819516293 -20.423041506526655 -18.149413371432697 0 0 0
2201 150 4 -0.5498731044470258 2.8058099265355803 -20.759722065190108 -19.06845898409115 0 0 0
2202 151 3 -0.6052995020244009 1.7715601370042575 -19.160731783007147 -17.839341876481758 0 0 0
2203 151 1 0.3302120832406025 1.1519213337065457 -18.981655430738872 -17.026630230009385 0 0 0
2204 151 2 0.1077907777605794 2.3978034112736473 -18.11469289102716 -18.633996817302318 0 0 0
2205 151 1 0.08987437700479477 2.14811388868955 -18.30345490236159 -19.695949447619466 0 0 0
2206 151 2 -0.153919836145706 1.7618687238016562 -16.738296584825314 -18.19081031224817 0 0 0
2207 151 1 0.06165665806459801 2.425890752475375 -15.948417529074378 -18.614737001904953 0 0 0
2208 151 1 0.09477353253623383 1.7994734472636724 -16.592948043072592 -17.08440227948903 0 0 0
2209 151 2 -0.007652539785940354 0.32503286499185635 -16.44561387684603 -18.691302657480772 0 0 0
2210 151 2 -0.07685350230296253 -0.6171909355339308 -17.28114853457127 -19.367443339656244 0 0 0
2211 151 1 0.1058855225297693 -0.4141385931125902 -18.357843783087755 -19.5263781310134 0 0 0
2212 151 2 -0.07653497406962667 -1.8029461074815087 -16.70721616728817 -19.859113101665987 0 0 0
2213 151 1 0.1044977495130649 -2.541094661247656 -17.35736557681126 -20.36021299348014 0 0 0
2259 154 1 0.09158637999469872 1.117322623438579 -19.941538399867976 -22.254936183683707 0 0 0
2189 149 4 -0.5671118886055017 3.9910107358623708 -21.271731016984642 -16.119985235042172 0 0 0
2221 151 2 0.5499584971027587 3.996265299468869 -18.113160495059233 -18.528975669412688 0 0 0
2222 151 4 -0.5811491201956346 4.583171005064872 -17.559094458487156 -19.43746566439941 0 0 0
2223 152 3 -0.5992593627112628 4.571425547974609 -18.61070913844461 -17.42085923629564 0 0 0
2224 152 1 0.2975146121520272 3.9409445694197585 -19.115408626676274 -16.802086753308092 0 0 0
2225 152 2 0.1044364227142107 6.014243064823517 -18.582754736900252 -17.316812337833436 0 0 0
2226 152 1 0.1071414832723278 6.32291839863374 -17.60938241018214 -17.75443967969088 0 0 0
2232 152 2 0.5576104832199369 6.663712993846811 -19.795076843410605 -18.13382932677568 0 0 0
2233 152 4 -0.5679075996657811 7.806196346869554 -19.624066187902713 -18.522489723670805 0 0 0
2234 153 3 -0.5930277316057981 5.980750131311925 -20.94083615684057 -18.240068861548522 0 0 0
2235 153 1 0.3259676107288992 5.040462926981752 -21.00811503271959 -17.837470853596635 0 0 0
2236 153 2 0.1216592361656698 6.509886310420029 -21.903063822744464 -19.18220171615295 0 0 0
2237 153 1 0.1376323412439682 7.5980070494835354 -22.014453685930363 -18.979731585720092 0 0 0
2246 153 2 0.5544875076288177 6.461531105525767 -21.24568913789462 -20.655078968985976 0 0 0
2247 153 4 -0.513944622197168 7.349617980080833 -21.575216860902135 -21.39718387994106 0 0 0
2248 154 3 -0.5862046727237705 5.41676891842003 -20.45351998101831 -20.961676244322963 0 0 0
2249 154 1 0.2918291200614869 4.7672036261380395 -20.30073286998211 -20.190888558485458 0 0 0
2250 154 2 0.1094677094706542 5.316684775885643 -19.903149204047264 -22.299863980161987 0 0 0
2254 154 1 0.09361716949543195 3.32627897271349 -19.025839900907652 -21.696559786973733 0 0 0
2256 154 1 0.1000950880260361 3.286588023285909 -21.633610906193315 -22.25925059738186 0 0 0
2272 155 3 -0.5951101189843948 5.634862736116221 -17.45803336524757 -22.037129511223664 0 0 0
2273 155 1 0.2849059544185276 4.81440828444813 -17.536496564663732 -21.432662645902905 0 0 0
2292 156 3 -0.610333143080562 7.741430012539632 -16.576519023513764 -20.517047059839978 0 0 0
2293 156 1 0.2849544021152127 7.0173360769082 -17.24859607653155 -20.29926998432984 0 0 0
2294 156 2 0.08676773796325163 8.994165134119424 -16.534436219442963 -19.795679050938315 0 0 0
2296 156 1 0.114211749772165 8.659487043296524 -16.75661572548756 -18.758502180476018 0 0 0
2299 157 3 -0.5752737311446081 9.512375355627054 -18.725308792538122 -20.98251624011805 0 0 0
2300 157 1 0.3246897744449259 8.587020389608877 -18.807311711129948 -21.412629366018546 0 0 0
2412 164 1 0.1226820419566742 4.605375420514184 -16.060406846758177 -16.30043139519972 0 0 0
2297 156 2 0.5879561073877979 10.00177710513385 -17.632712847853714 -20.342184326771722 0 0 0
2298 156 4 -0.4713324144324693 11.143261456050727 -17.493221184317587 -20.0126880529997 0 0 0
2301 157 2 0.07415775098351071 10.535965559624287 -19.73348684690439 -21.283992118599866 0 0 0
2302 157 1 0.105387251939125 9.965242507642689 -20.51795033201365 -21.827736209035688 0 0 0
2303 157 1 0.1255283440318812 11.234617742613572 -19.23556376409542 -21.992191489665277 0 0 0
2304 157 2 0.591475029174763 11.267613277449819 -20.30113333142078 -20.000687557343433 0 0 0
2305 157 4 -0.4940282783611768 12.427142559353157 -20.583235207893885 -20.11971649405169 0 0 0
2306 158 3 -0.5999886870687124 10.496385163705758 -20.57749830209247 -18.918248699691834 0 0 0
2307 158 1 0.3273106619124061 9.517931864734097 -20.245757497287727 -18.834753349576886 0 0 0
2308 158 2 0.06044753659688335 11.134829677855267 -21.465769356160923 -17.943342422290034 0 0 0
2309 158 1 0.09516777725236772 10.40201526976856 -22.279215449339613 -17.7599551462598 0 0 0
2310 158 1 0.1212802590245587 12.03559777221641 -21.919259597160497 -18.419387007016336 0 0 0
2311 158 2 0.5472476512250284 11.455230479981612 -20.70692776331994 -16.59298726950848 0 0 0
2313 159 3 -0.5576291484048786 11.193979379141297 -19.386476689605225 -16.56404633460793 0 0 0
2314 159 1 0.3163494027870544 10.809434707119259 -18.913079846098647 -17.383401342850128 0 0 0
2319 159 1 0.1346716169128238 13.068766479139354 -17.681035349488802 -16.21624651212481 0 0 0
2324 159 1 0.1063321605232338 15.246806034176915 -17.55604884438324 -15.947053980285585 0 0 0
2327 159 1 0.09975381594237234 15.875639961597592 -19.590914815440694 -17.035893603005103 0 0 0
2334 159 4 -0.5190020208194138 10.01434767726197 -17.07548594502619 -16.61691705049961 0 0 0
2326 159 2 0.02515202068734846 16.17940297581831 -19.44706188843446 -15.978968513907976 0 0 0
2329 159 3 -0.6758252374721644 17.613079602997054 -18.865271205828076 -16.118198873981125 0 0 0
2330 159 1 0.2055165128477368 17.896996216139822 -18.631931567853087 -17.111888147143034 0 0 0
3948 263 1 0.06480734523555734 -17.537181633669245 -9.676674403619986 -18.408664007445083 0 0 0
3950 263 2 0.612549791247601 -19.4025778726327 -10.839240013110235 -18.145722648929304 0 0 0
3951 263 4 -0.5122371292059997 -18.96554723469113 -11.764456785022041 -17.524012667564378 0 0 0
3952 263 3 -0.6555130603476537 -20.627382085027254 -10.831574377128579 -18.7255593708446 0 0 0
3953 263 1 0.2631632725758313 -21.107036629629835 -10.022104113250514 -19.13309596545908 0 0 0
3954 263 1 0.2579179432981176 -21.36437450825713 -11.535443973121836 -18.634212493147487 0 0 0
2581 174 2 0.1137261710275312 -9.911320985014887 -9.829543553227248 -16.87557444495452 0 0 0
2584 174 1 0.09513864154311789 -9.941163777900957 -10.9221736634541 -18.77307980722839 0 0 0
2594 174 2 0.5735862546770467 -10.67893391766634 -10.988207569598718 -16.101445356131 0 0 0
2595 174 4 -0.5481044733397982 -11.86378327823923 -11.044791828986881 -16.227957515508525 0 0 0
2642 178 2 -0.176648812590209 -14.842927990523643 -13.159367589973568 -16.385986532644665 0 0 0
2643 178 1 0.1163434463851569 -14.018783910882684 -13.811172603827208 -16.01319668564679 0 0 0
2644 178 1 0.09421889731750835 -15.510303952232517 -13.797905995495682 -17.008759856274985 0 0 0
2645 178 1 0.106994112078063 -14.374292521347085 -12.401257213268845 -17.05819095884758 0 0 0
2511 170 1 0.07941362277515751 -6.1261702054043905 -9.80017176148341 -22.064482092622573 0 0 0
2514 171 3 -0.5820102538528887 -4.180582927520398 -10.380349965122285 -17.162250384381455 0 0 0
2516 171 2 0.1016593036961141 -5.110665611247723 -11.527990488744063 -17.091183302345314 0 0 0
2517 171 1 0.09401970210198349 -5.783680583100295 -11.40527534163209 -17.9645472842511 0 0 0
2518 171 2 -0.1567969052922161 -4.232499204618716 -12.801296666237528 -17.335167338415122 0 0 0
2519 171 1 0.0928249591481804 -3.4993757838651014 -12.900598353443055 -16.50987315454539 0 0 0
2520 171 1 0.108977962318405 -3.621081994311717 -12.651853430515228 -18.25363658691979 0 0 0
2521 171 2 -0.1237933105766129 -5.066280780513242 -14.13196028212158 -17.45074409562975 0 0 0
2522 171 1 0.1559589851248288 -5.688317839209575 -14.281645523699769 -16.538397012037116 0 0 0
2523 171 1 0.1149024341560825 -4.353480890535064 -14.98476753165408 -17.49114531758041 0 0 0
2524 171 2 -0.1317901498079166 -5.983990452369303 -14.157748994855377 -18.725967403936806 0 0 0
2525 171 1 0.09367419714509086 -6.89896236721528 -13.550959586304117 -18.540348148949544 0 0 0
2526 171 1 0.09026003520470585 -5.453982291172096 -13.692137604643099 -19.58570942896392 0 0 0
2527 171 2 0.04637245182151728 -6.397360016550233 -15.63039214200464 -19.055089790680046 0 0 0
2529 171 1 0.07668556214380562 -7.137493146652079 -15.752283152856679 -19.875140364441968 0 0 0
2533 171 1 0.3422473836503585 -7.964622483430678 -15.381055611596942 -17.408021888992394 0 0 0
2583 174 2 -0.1468217610868933 -9.21877217003481 -10.284585957731164 -18.221533158676706 0 0 0
2585 174 1 0.1051264504363394 -8.337276750833128 -10.933685154979276 -18.01300463058656 0 0 0
2605 175 4 -0.5624547359846269 -9.046031128988705 -14.627728530671437 -16.643838012510496 0 0 0
2214 151 2 0.2319820375313502 -2.0587075476347754 -15.299599218917516 -19.765194156940545 0 0 0
2215 151 4 -0.5729838400271863 -3.1635836877923342 -14.691483552532349 -20.396087496947686 0 0 0
2216 151 1 0.2832892784187131 -2.8817829681453255 -13.747155965945822 -20.44785091577522 0 0 0
2217 151 2 -0.1052758043759378 0.021562427930157665 -15.069084333013734 -18.465404497425112 0 0 0
2218 151 1 0.07940163133439462 0.7237815242272734 -14.433787160619252 -17.896510898318486 0 0 0
2219 151 2 -0.1107011187268929 -1.13568878373922 -14.504699107400118 -19.01573762069776 0 0 0
2220 151 1 0.09663029942951112 -1.3198991578722163 -13.425548651859634 -18.874484373270533 0 0 0
2281 155 1 0.07305151482223216 2.5265627057579705 -15.39743194211189 -21.56716617749752 0 0 0
2418 164 4 -0.5977307710695499 2.8880967855209514 -12.055561737325139 -16.461550226669615 0 0 0
2437 167 1 0.3156932286050737 2.665150991224412 -9.945290873048844 -18.776788193966865 0 0 0
2438 167 2 0.1134314420287709 0.5662316853722298 -10.462765286468251 -19.077815912854582 0 0 0
2439 167 1 0.1310243088881172 -0.008925966283065388 -9.752107913765563 -19.70546148388472 0 0 0
2440 167 2 -0.1464509593467009 1.2481589013424919 -11.616876783652996 -19.92181614546357 0 0 0
2441 167 1 0.09138072993908564 0.48799084746039256 -12.397798107890404 -20.142592951003294 0 0 0
2442 167 1 0.09657344378023895 2.0461868018932607 -12.110032187784745 -19.3206633421664 0 0 0
2443 167 2 -0.1598360240377155 1.890999224278309 -11.171442675709367 -21.259156084527287 0 0 0
2444 167 1 0.07991536296596584 2.399332216903316 -12.020781773426764 -21.761071960805094 0 0 0
2445 167 1 0.1129367789904479 2.684041555154681 -10.412792195864236 -21.09771030103727 0 0 0
2446 167 2 0.6339032917555818 0.7405186698038869 -10.597472085649516 -22.27354624810808 0 0 0
2448 167 4 -0.4817713845121212 -0.43872363226203004 -10.933231070390175 -22.111053073943523 0 0 0
2449 167 2 0.578889513976737 -0.33587422160420494 -10.936355670211709 -17.84852261207841 0 0 0
2450 167 4 -0.5687773629003329 -1.5398584593500304 -10.92879852586823 -18.00319165766928 0 0 0
2451 168 3 -0.5930861734296932 0.291137055327949 -11.389806375912265 -16.761780154059533 0 0 0
2452 168 1 0.3337174932474741 1.3375345684599251 -11.40910587434469 -16.73213882987957 0 0 0
2515 171 1 0.3311285671142008 -3.148973863053284 -10.478310215481375 -17.264743134770008 0 0 0
2276 155 2 -0.166372794211677 5.164161688238517 -15.029250013168104 -22.237335834264073 0 0 0
2278 155 1 0.07812381673691576 4.80499870422915 -14.959585228022878 -21.186218343906045 0 0 0
2290 155 2 0.5691495466636922 7.5675710818996516 -15.877276529664414 -21.657966680379467 0 0 0
2291 155 4 -0.5108247239467556 8.270466913009043 -14.98325072046128 -22.061036452970832 0 0 0
2295 156 1 0.1240301895088739 9.379222178733379 -15.493716952876682 -19.858925175889677 0 0 0
2364 161 4 -0.5568828021200578 8.785236360610886 -12.792024078640011 -17.956914786595995 0 0 0
2370 162 3 -0.6170190517993751 9.339577450971367 -9.961123265836134 -16.039608264191425 0 0 0
2389 163 3 -0.6031760067273475 7.648704190825703 -9.752898226895542 -18.255184346022713 0 0 0
2390 163 1 0.2522446983157977 8.576898104137962 -10.15816144136201 -18.29649283069052 0 0 0
2391 163 2 0.1085256975944489 6.663496073670578 -9.899950374221765 -19.317525556125165 0 0 0
2393 163 2 0.1430360984986705 7.496755884381891 -10.509097002256901 -20.516296254079606 0 0 0
2394 163 1 0.1011280132432585 8.030750522180131 -11.418035333475029 -20.139804407113328 0 0 0
2395 163 4 -0.5491899463813636 8.438854113949578 -9.53607160112736 -21.011065031842662 0 0 0
2397 163 2 -0.1887973115343461 6.564847211713334 -10.968006881555816 -21.69451237503814 0 0 0
2399 163 1 0.07107824011417543 5.918734994552594 -11.82974264963793 -21.39369671271378 0 0 0
2400 163 1 0.09561179595246905 5.907249085360557 -10.13531843824163 -22.04243837990909 0 0 0
2401 163 2 0.5569461073259158 5.503273381767031 -10.872008122489184 -18.82642614195444 0 0 0
2402 163 4 -0.5860762733739837 4.371506007440171 -10.638259481732993 -19.197962207054843 0 0 0
2403 164 3 -0.6026920253641115 5.91883300602121 -11.957280388283598 -18.15225251873652 0 0 0
2404 164 1 0.3178415428952405 6.887121032743781 -11.97922498836767 -17.803215645776636 0 0 0
2405 164 2 0.1090982672718095 4.817229720364891 -12.757046614391754 -17.615860521771822 0 0 0
2406 164 1 0.09475207112812518 4.173870665101913 -12.949426988592123 -18.505720976988655 0 0 0
2407 164 2 -0.0994519955181363 5.379329676988191 -14.072314161494267 -16.947072728178316 0 0 0
2408 164 1 0.1004730619597927 6.058005417755729 -13.802092586713757 -16.10988763257425 0 0 0
2409 164 2 -0.2091274093069627 4.244514377583733 -15.008543548301663 -16.39717095471706 0 0 0
2411 164 1 0.06929912940327722 3.3430380976832073 -15.030608648846707 -17.050743593523162 0 0 0
2413 164 2 -0.1868155147799353 6.126049220860026 -14.892630120247953 -18.05755391691624 0 0 0
2414 164 1 0.1040537392404833 5.404630783913343 -15.418811165145645 -18.724450191588673 0 0 0
2415 164 1 0.1237701757001388 6.757028689533178 -14.23678425176485 -18.702987868797177 0 0 0
2416 164 1 0.08554593523827742 6.795903329929043 -15.670658545585365 -17.626483422118472 0 0 0
2417 164 2 0.5859454322410014 4.0889323246745475 -11.865754038539007 -16.522256401376342 0 0 0
2360 161 2 -0.1770560180937369 10.823267575769824 -12.559496944574112 -16.61732538595182 0 0 0
2361 161 1 0.08856144313623697 11.544584441724773 -13.350753367466664 -16.328406135124318 0 0 0
2362 161 1 0.0508600323599776 11.465000609154748 -11.687404847538547 -16.870071334055442 0 0 0
2363 161 2 0.578636868492443 9.972563611753815 -12.997311969096872 -17.857093791864436 0 0 0
2365 161 3 -0.6724324680673757 10.678152748829298 -13.525201085388732 -18.891280451501412 0 0 0
2366 161 1 0.2564132741383931 11.669032311856519 -13.69006024714402 -19.112011558472684 0 0 0
2367 161 1 0.2677264854851192 10.181363834215686 -13.636194403975198 -19.781614510984816 0 0 0
2371 162 1 0.2106822843325603 10.348569475975639 -9.837680100296161 -16.096771481391663 0 0 0
3180 213 2 -0.1676134374928628 14.249683483760464 -14.143747333855677 -16.22502349073283 0 0 0
3181 213 1 0.09679298745023668 14.471508618490061 -13.085076529507159 -16.487883460499475 0 0 0
3182 213 1 0.08582499025413062 13.15455444956693 -14.271610238997624 -16.32511866629655 0 0 0
3183 213 2 0.5682094310757514 14.927694275614483 -15.129781682463395 -17.265614690764412 0 0 0
3184 213 4 -0.4675989949372198 14.302644056593312 -15.920009597537236 -17.916906921436084 0 0 0
3160 211 1 0.1073268899391621 18.209124125267987 -11.022027676306589 -16.600249712453675 0 0 0
3162 211 4 -0.5559483249076264 18.03671469243806 -13.507352386046517 -15.98846217996319 0 0 0
3165 211 4 -0.5125842287776936 16.041853756897137 -9.806979183608926 -16.14695689256805 0 0 0
3185 213 3 -0.6627733098218305 16.256589841778958 -14.979173581043705 -17.37509050742396 0 0 0
3186 213 1 0.3349193504155895 16.904469214217485 -14.339691514154527 -16.816748008439674 0 0 0
3187 213 1 0.2679524360581158 16.85107433379147 -15.473373866405574 -18.054709674382305 0 0 0
2627 177 1 0.09576714994916344 -16.035532403503115 -8.633559157347054 -16.059272212647482 0 0 0
3943 263 3 -0.6071034160172716 -18.96359424902289 -9.030982465195235 -15.988828899009409 0 0 0
3945 263 2 0.09889403764645248 -18.755767997774097 -8.378961031773674 -17.27533021628401 0 0 0
3946 263 1 0.05201585842573432 -17.755727116966767 -7.908758192203116 -17.155726469677052 0 0 0
3947 263 2 -0.1532186337664989 -18.632505200683344 -9.479554738045351 -18.38754402923685 0 0 0
3949 263 1 0.09156500051570649 -18.896361188671428 -9.082077261843027 -19.395461997616078 0 0 0
3955 263 2 0.5834088286322794 -19.724907019621796 -7.120924212286022 -17.515849457128528 0 0 0
3956 263 4 -0.5040173107089252 -20.229066793205796 -6.954291764490903 -18.597663271381386 0 0 0
3957 264 3 -0.6132289815624309 -19.677125937915513 -6.230455937617986 -16.50368992025927 0 0 0
3959 264 2 0.1186280368637877 -20.458852909068355 -5.027793629452071 -16.554071409860896 0 0 0
3960 264 1 0.1209985138793608 -20.995366610711116 -5.075375702645087 -17.528039136507186 0 0 0
3966 264 2 0.579602551145328 -19.471101195309455 -3.7450225246116786 -16.491048871891206 0 0 0
3968 265 3 -0.5491886247826283 -18.169041053369835 -3.925346601200249 -16.807608833723926 0 0 0
3969 265 1 0.2463993670130798 -17.979430824718936 -4.922845098784994 -16.80362323841221 0 0 0
2582 174 1 0.1064165930696895 -10.715631827300303 -9.074098883799302 -17.0074869978214 0 0 0
2589 174 2 0.5753076197566775 -9.975984425198188 -8.192554890407946 -19.549460947114294 0 0 0
2590 174 4 -0.4683590262415064 -10.690344466516542 -8.467481655605877 -20.471924195357264 0 0 0
2591 174 3 -0.665509606912784 -10.131666406794563 -7.0662115342100185 -18.81486397235814 0 0 0
2593 174 1 0.2434233326042801 -10.731518382235942 -6.281396986875413 -19.09656699376052 0 0 0
2625 177 2 -0.2277039844506871 -15.242886429849548 -7.854195290739443 -15.993989672482137 0 0 0
2626 177 1 0.06601568173006067 -15.018778110406588 -7.54011509764119 -17.0394108943114 0 0 0
2632 177 2 -0.2103231146372715 -12.469006966292628 -6.618138460656605 -16.37222467113383 0 0 0
2633 177 1 0.1016830651247234 -11.94950801296457 -7.4588121730305135 -16.879245227737773 0 0 0
2634 177 1 0.07704617913049122 -13.248255824548746 -6.231289908577322 -17.067962340155987 0 0 0
2635 177 1 0.06943730988896488 -11.72553515142303 -5.804445338529703 -16.23835863010717 0 0 0
3972 265 2 -0.1440041737244151 -15.881275270421547 -3.6050179767110797 -17.404438262423138 0 0 0
3973 265 1 0.1089592862158196 -15.983642567165036 -3.5170931144912196 -18.512193286549905 0 0 0
3974 265 1 0.07650619354143394 -15.919534703797815 -4.7024354107895 -17.19898742403508 0 0 0
2496 170 2 0.1120623102438053 -3.9086783898421684 -7.85399781730706 -17.27250505485218 0 0 0
2497 170 1 0.1137592290432964 -4.395963029470491 -7.034994577357755 -16.697787691430285 0 0 0
2498 170 2 -0.1526300992137019 -3.615892557552965 -7.4342312219598465 -18.771968382847877 0 0 0
2500 170 1 0.08255972931331985 -3.3667373216366068 -6.349333319030538 -18.797782765450616 0 0 0
2501 170 2 -0.007087032491780589 -4.8094811194540945 -7.639444019596459 -19.73882674823677 0 0 0
2502 170 2 -0.07242150315159458 -5.764189977358475 -6.590048545809649 -19.868970151173176 0 0 0
2503 170 1 0.0869266681337643 -5.673142600407701 -5.69973313449194 -19.2289831051739 0 0 0
2504 170 2 -0.07802415616824337 -6.803042263788264 -6.663490187507196 -20.822845601585044 0 0 0
2505 170 1 0.08634622536055644 -7.519480022701732 -5.827760298088791 -20.9437403089796 0 0 0
2506 170 2 -0.07755964371496959 -6.914400839984853 -7.819998076561027 -21.637658024872632 0 0 0
2508 170 2 -0.07218237122567175 -4.9259508621053625 -8.805597660728736 -20.542965341811637 0 0 0
2509 170 1 0.09487471428930495 -4.1846299573357 -9.618821420560895 -20.463912904858404 0 0 0
2510 170 2 -0.09300548802336867 -6.000292173388448 -8.888703893621877 -21.457956874981367 0 0 0
2512 170 2 0.5828930763821855 -4.791438408109189 -9.16951072864005 -17.168120571085566 0 0 0
2513 170 4 -0.5725117526482723 -5.979930889574217 -8.988048398209132 -17.16027684172755 0 0 0
2579 174 3 -0.5993254544680773 -8.864776312828422 -9.194547790121575 -16.08673540019564 0 0 0
2580 174 1 0.302254371313416 -7.9272495865656625 -9.11133308356008 -16.494159513850207 0 0 0
2586 174 2 -0.1592645418425674 -8.761682356656975 -9.138987445812415 -19.182726554055414 0 0 0
2587 174 1 0.08750479496625642 -8.431518699367786 -9.58665820052298 -20.147195412697247 0 0 0
2588 174 1 0.113493936658085 -7.888406197474636 -8.577841740760743 -18.774505338556523 0 0 0
2592 174 1 0.2155483271684775 -9.605559627359106 -6.722871108128956 -18.00343018032596 0 0 0
3796 253 5 -0.1889893038809067 -6.476899190590162 -3.4187703072072253 -17.21178059919363 0 0 0
3797 253 2 -0.1612884140212358 -8.245010195914574 -3.8025086732833504 -17.600043034540086 0 0 0
3799 253 1 0.0663071909228331 -8.47274560710229 -3.982977892627771 -18.687594098716726 0 0 0
3800 253 1 0.06456525723179414 -8.699892691778825 -4.695831122106135 -17.08655498679333 0 0 0